 Entering Gaussian System, Link 0=g16
 Input=SO_pc-2.gjf
 Output=SO_pc-2.log
 Initial command:
 /apps/gaussian/g16c01/g16/l1.exe "/jobfs/8424109.gadi-pbs/Gau-1579399.inp" -scrdir="/jobfs/8424109.gadi-pbs/"
 Entering Link 1 = /apps/gaussian/g16c01/g16/l1.exe PID=   1579400.
  
 Copyright (c) 1988-2019, Gaussian, Inc.  All Rights Reserved.
  
 This is part of the Gaussian(R) 16 program.  It is based on
 the Gaussian(R) 09 system (copyright 2009, Gaussian, Inc.),
 the Gaussian(R) 03 system (copyright 2003, Gaussian, Inc.),
 the Gaussian(R) 98 system (copyright 1998, Gaussian, Inc.),
 the Gaussian(R) 94 system (copyright 1995, Gaussian, Inc.),
 the Gaussian 92(TM) system (copyright 1992, Gaussian, Inc.),
 the Gaussian 90(TM) system (copyright 1990, Gaussian, Inc.),
 the Gaussian 88(TM) system (copyright 1988, Gaussian, Inc.),
 the Gaussian 86(TM) system (copyright 1986, Carnegie Mellon
 University), and the Gaussian 82(TM) system (copyright 1983,
 Carnegie Mellon University). Gaussian is a federally registered
 trademark of Gaussian, Inc.
  
 This software contains proprietary and confidential information,
 including trade secrets, belonging to Gaussian, Inc.
  
 This software is provided under written license and may be
 used, copied, transmitted, or stored only in accord with that
 written license.
  
 The following legend is applicable only to US Government
 contracts under FAR:
  
                    RESTRICTED RIGHTS LEGEND
  
 Use, reproduction and disclosure by the US Government is
 subject to restrictions as set forth in subparagraphs (a)
 and (c) of the Commercial Computer Software - Restricted
 Rights clause in FAR 52.227-19.
  
 Gaussian, Inc.
 340 Quinnipiac St., Bldg. 40, Wallingford CT 06492
  
  
 ---------------------------------------------------------------
 Warning -- This program may not be used in any manner that
 competes with the business of Gaussian, Inc. or will provide
 assistance to any competitor of Gaussian, Inc.  The licensee
 of this program is prohibited from giving any competitor of
 Gaussian, Inc. access to this program.  By using this program,
 the user acknowledges that Gaussian, Inc. is engaged in the
 business of creating and licensing software in the field of
 computational chemistry and represents and warrants to the
 licensee that it is not a competitor of Gaussian, Inc. and that
 it will not use this program in any manner prohibited above.
 ---------------------------------------------------------------
  

 Cite this work as:
 Gaussian 16, Revision C.01,
 M. J. Frisch, G. W. Trucks, H. B. Schlegel, G. E. Scuseria, 
 M. A. Robb, J. R. Cheeseman, G. Scalmani, V. Barone, 
 G. A. Petersson, H. Nakatsuji, X. Li, M. Caricato, A. V. Marenich, 
 J. Bloino, B. G. Janesko, R. Gomperts, B. Mennucci, H. P. Hratchian, 
 J. V. Ortiz, A. F. Izmaylov, J. L. Sonnenberg, D. Williams-Young, 
 F. Ding, F. Lipparini, F. Egidi, J. Goings, B. Peng, A. Petrone, 
 T. Henderson, D. Ranasinghe, V. G. Zakrzewski, J. Gao, N. Rega, 
 G. Zheng, W. Liang, M. Hada, M. Ehara, K. Toyota, R. Fukuda, 
 J. Hasegawa, M. Ishida, T. Nakajima, Y. Honda, O. Kitao, H. Nakai, 
 T. Vreven, K. Throssell, J. A. Montgomery, Jr., J. E. Peralta, 
 F. Ogliaro, M. J. Bearpark, J. J. Heyd, E. N. Brothers, K. N. Kudin, 
 V. N. Staroverov, T. A. Keith, R. Kobayashi, J. Normand, 
 K. Raghavachari, A. P. Rendell, J. C. Burant, S. S. Iyengar, 
 J. Tomasi, M. Cossi, J. M. Millam, M. Klene, C. Adamo, R. Cammi, 
 J. W. Ochterski, R. L. Martin, K. Morokuma, O. Farkas, 
 J. B. Foresman, and D. J. Fox, Gaussian, Inc., Wallingford CT, 2019.
 
 ******************************************
 Gaussian 16:  ES64L-G16RevC.01  3-Jul-2019
                13-Jul-2020 
 ******************************************
 ---------------------------------------------------------
 # SOGGA11X/Gen Freq Opt=(VeryTight,CalcAll) Int=UltraFine
 ---------------------------------------------------------
 1/7=1,10=4,18=20,19=15,26=4,38=1/1,3;
 2/9=110,12=2,17=6,18=5,40=1/2;
 3/5=7,11=2,25=1,30=1,71=2,74=-65,75=-5,140=1/1,2,3;
 4//1;
 5/5=2,38=5/2;
 8/6=4,10=90,11=11/1;
 11/6=1,8=1,9=11,15=111,16=1/1,2,10;
 10/6=1/2;
 6/7=2,8=2,9=2,10=2,18=1,28=1/1;
 7/10=1,25=1/1,2,3,16;
 1/7=1,10=4,18=20,19=15,26=4/3(3);
 2/9=110/2;
 7/8=1,9=1,25=1,44=-1/16;
 99//99;
 2/9=110/2;
 3/5=7,6=1,11=2,25=1,30=1,71=2,74=-65,75=-5,82=7,140=1/1,2,3;
 4/5=5,16=3,69=1/1;
 5/5=2,38=5/2;
 8/6=4,10=90,11=11/1;
 11/6=1,8=1,9=11,15=111,16=1/1,2,10;
 10/6=1/2;
 7/10=1,25=1/1,2,3,16;
 1/7=1,10=4,18=20,19=15,26=4/3(-8);
 2/9=110/2;
 6/7=2,8=2,9=2,10=2,18=1,19=2,28=1/1;
 7/8=1,9=1,25=1,44=-1/16;
 99//99;
 ------------------------
 H2O HARMONIC FREQUENCIES
 ------------------------
 Symbolic Z-matrix:
 Charge =  0 Multiplicity = 1
 O1
 H2                   O1   r2
 H3                   O1   r3       H2   a3
       Variables:
  r2                    0.969                    
  r3                    0.969                    
  a3                  103.978                    
 

 GradGradGradGradGradGradGradGradGradGradGradGradGradGradGradGradGradGrad
 Berny optimization.
 Initialization pass.
                           ----------------------------
                           !    Initial Parameters    !
                           ! (Angstroms and Degrees)  !
 --------------------------                            --------------------------
 ! Name  Definition              Value          Derivative Info.                !
 --------------------------------------------------------------------------------
 ! R1    R(1,2)                  0.969          calculate D2E/DX2 analytically  !
 ! R2    R(1,3)                  0.969          calculate D2E/DX2 analytically  !
 ! A1    A(2,1,3)              103.978          calculate D2E/DX2 analytically  !
 --------------------------------------------------------------------------------
 Trust Radius=3.00D-01 FncErr=1.00D-07 GrdErr=1.00D-06 EigMax=2.50D+02 EigMin=1.00D-04
 Number of steps in this run=     20 maximum allowed number of steps=    100.
 GradGradGradGradGradGradGradGradGradGradGradGradGradGradGradGradGradGrad

                          Input orientation:                          
 ---------------------------------------------------------------------
 Center     Atomic      Atomic             Coordinates (Angstroms)
 Number     Number       Type             X           Y           Z
 ---------------------------------------------------------------------
      1          8           0        0.000000    0.000000    0.000000
      2          1           0        0.000000    0.000000    0.969000
      3          1           0        0.940307    0.000000   -0.234061
 ---------------------------------------------------------------------
                    Distance matrix (angstroms):
                    1          2          3
     1  O    0.000000
     2  H    0.969000   0.000000
     3  H    0.969000   1.526936   0.000000
 Stoichiometry    H2O
 Framework group  C2V[C2(O),SGV(H2)]
 Deg. of freedom     2
 Full point group                 C2V     NOp   4
 Largest Abelian subgroup         C2V     NOp   4
 Largest concise Abelian subgroup C2      NOp   2
                         Standard orientation:                         
 ---------------------------------------------------------------------
 Center     Atomic      Atomic             Coordinates (Angstroms)
 Number     Number       Type             X           Y           Z
 ---------------------------------------------------------------------
      1          8           0        0.000000    0.000000    0.119345
      2          1           0       -0.000000    0.763468   -0.477378
      3          1           0       -0.000000   -0.763468   -0.477378
 ---------------------------------------------------------------------
 Rotational constants (GHZ):         792.8710405         430.1505962         278.8617474
 General basis read from cards:  (5D, 7F)
 There are    27 symmetry adapted cartesian basis functions of A1  symmetry.
 There are     7 symmetry adapted cartesian basis functions of A2  symmetry.
 There are    12 symmetry adapted cartesian basis functions of B1  symmetry.
 There are    19 symmetry adapted cartesian basis functions of B2  symmetry.
 There are    23 symmetry adapted basis functions of A1  symmetry.
 There are     7 symmetry adapted basis functions of A2  symmetry.
 There are    11 symmetry adapted basis functions of B1  symmetry.
 There are    17 symmetry adapted basis functions of B2  symmetry.
    58 basis functions,    91 primitive gaussians,    65 cartesian basis functions
     5 alpha electrons        5 beta electrons
       nuclear repulsion energy         9.0842657504 Hartrees.
 NAtoms=    3 NActive=    3 NUniq=    2 SFac= 2.25D+00 NAtFMM=   60 NAOKFM=F Big=F
 Integral buffers will be    131072 words long.
 Raffenetti 2 integral format.
 Two-electron integral symmetry is turned on.
 One-electron integrals computed using PRISM.
 NBasis=    58 RedAO= T EigKep=  4.27D-03  NBF=    23     7    11    17
 NBsUse=    58 1.00D-06 EigRej= -1.00D+00 NBFU=    23     7    11    17
 ExpMin= 7.41D-02 ExpMax= 1.48D+04 ExpMxC= 5.05D+02 IAcc=3 IRadAn=         5 AccDes= 0.00D+00
 Harris functional with IExCor= 5143 and IRadAn=       5 diagonalized for initial guess.
 HarFok:  IExCor= 5143 AccDes= 0.00D+00 IRadAn=         5 IDoV= 1 UseB2=F ITyADJ=14
 ICtDFT=  3500011 ScaDFX=  1.000000  1.000000  1.000000  1.000000
 FoFCou: FMM=F IPFlag=           0 FMFlag=      100000 FMFlg1=           0
         NFxFlg=           0 DoJE=T BraDBF=F KetDBF=T FulRan=T
         wScrn=  0.000000 ICntrl=       500 IOpCl=  0 I1Cent=   200000004 NGrid=           0
         NMat0=    1 NMatS0=      1 NMatT0=    0 NMatD0=    1 NMtDS0=    0 NMtDT0=    0
 Petite list used in FoFCou.
 Initial guess orbital symmetries:
       Occupied  (A1) (A1) (B2) (A1) (B1)
       Virtual   (A1) (B2) (B2) (A1) (B1) (A1) (B2) (A1) (A2) (A1)
                 (B1) (B2) (B2) (A1) (A1) (B2) (B1) (A2) (A1) (A1)
                 (B2) (B1) (A1) (B1) (B2) (A1) (A2) (B2) (B1) (B2)
                 (A1) (A2) (A1) (B2) (B1) (A2) (A1) (B2) (B2) (A1)
                 (B1) (A1) (B1) (B2) (A2) (B1) (A2) (A1) (A1) (A1)
                 (B2) (B2) (A1)
 The electronic state of the initial guess is 1-A1.
 Keep R1 ints in memory in symmetry-blocked form, NReq=3432820.
 Requested convergence on RMS density matrix=1.00D-08 within 128 cycles.
 Requested convergence on MAX density matrix=1.00D-06.
 Requested convergence on             energy=1.00D-06.
 No special actions if energy rises.
 Integral accuracy reduced to 1.0D-05 until final iterations.
 Initial convergence to 1.0D-05 achieved.  Increase integral accuracy.
 SCF Done:  E(RSOGGA11X) =  -76.4353413994     A.U. after   10 cycles
            NFock= 10  Conv=0.46D-08     -V/T= 2.0050
 DoSCS=F DFT=T ScalE2(SS,OS)=  1.000000  1.000000
 Range of M.O.s used for correlation:     1    58
 NBasis=    58 NAE=     5 NBE=     5 NFC=     0 NFV=     0
 NROrb=     58 NOA=     5 NOB=     5 NVA=    53 NVB=    53
 Symmetrizing basis deriv contribution to polar:
 IMax=3 JMax=2 DiffMx= 0.00D+00
 G2DrvN: will do     4 centers at a time, making    1 passes.
 Calling FoFCou, ICntrl=  3107 FMM=F I1Cent=   0 AccDes= 0.00D+00.
 End of G2Drv F.D. properties file   721 does not exist.
 End of G2Drv F.D. properties file   722 does not exist.
 End of G2Drv F.D. properties file   788 does not exist.
          IDoAtm=111
          Differentiating once with respect to electric field.
                with respect to dipole field.
          Differentiating once with respect to nuclear coordinates.
 Keep R1 ints in memory in symmetry-blocked form, NReq=3434326.
          There are     9 degrees of freedom in the 1st order CPHF.  IDoFFX=4 NUNeed=     9.
      9 vectors produced by pass  0 Test12= 2.94D-15 1.11D-08 XBig12= 2.97D+00 1.07D+00.
 AX will form     9 AO Fock derivatives at one time.
      9 vectors produced by pass  1 Test12= 2.94D-15 1.11D-08 XBig12= 3.88D-01 2.98D-01.
      9 vectors produced by pass  2 Test12= 2.94D-15 1.11D-08 XBig12= 7.38D-03 3.40D-02.
      9 vectors produced by pass  3 Test12= 2.94D-15 1.11D-08 XBig12= 3.60D-05 2.88D-03.
      9 vectors produced by pass  4 Test12= 2.94D-15 1.11D-08 XBig12= 1.56D-07 1.48D-04.
      7 vectors produced by pass  5 Test12= 2.94D-15 1.11D-08 XBig12= 2.09D-10 5.09D-06.
      4 vectors produced by pass  6 Test12= 2.94D-15 1.11D-08 XBig12= 1.48D-13 1.16D-07.
 InvSVY:  IOpt=1 It=  1 EMax= 2.22D-16
 Solved reduced A of dimension    56 with     9 vectors.
 Isotropic polarizability for W=    0.000000        7.35 Bohr**3.
 End of Minotr F.D. properties file   721 does not exist.
 End of Minotr F.D. properties file   722 does not exist.
 End of Minotr F.D. properties file   788 does not exist.

 **********************************************************************

            Population analysis using the SCF Density.

 **********************************************************************

 Orbital symmetries:
       Occupied  (A1) (A1) (B2) (A1) (B1)
       Virtual   (A1) (B2) (B2) (A1) (A1) (B1) (B2) (A1) (A2) (A1)
                 (B1) (B2) (B2) (A1) (A1) (B2) (B1) (A2) (A1) (A1)
                 (B2) (B1) (A1) (B1) (B2) (A1) (A2) (B2) (B1) (B2)
                 (A1) (A2) (A1) (B2) (B1) (A2) (A1) (B2) (B2) (A1)
                 (B1) (A1) (B1) (B2) (A2) (B1) (A2) (A1) (A1) (A1)
                 (B2) (B2) (A1)
 The electronic state is 1-A1.
 Alpha  occ. eigenvalues --  -19.50525  -1.11555  -0.58488  -0.45096  -0.37275
 Alpha virt. eigenvalues --    0.03297   0.08384   0.30799   0.32187   0.37463
 Alpha virt. eigenvalues --    0.38386   0.48873   0.70671   0.79987   0.82845
 Alpha virt. eigenvalues --    0.90033   1.08429   1.21598   1.27495   1.47497
 Alpha virt. eigenvalues --    1.49891   1.82097   1.87611   1.92534   2.11204
 Alpha virt. eigenvalues --    2.17748   2.38281   2.98449   3.43229   3.45389
 Alpha virt. eigenvalues --    3.57190   3.64194   3.75723   3.85930   3.91844
 Alpha virt. eigenvalues --    4.07559   4.11024   4.32548   4.43125   4.52518
 Alpha virt. eigenvalues --    4.55958   4.69572   4.88296   4.95368   4.96763
 Alpha virt. eigenvalues --    5.01733   5.71829   6.01456   6.02530   6.26821
 Alpha virt. eigenvalues --    6.32034   6.35716   6.36389   6.48410   6.91216
 Alpha virt. eigenvalues --    6.98599   7.49284  14.97206
          Condensed to atoms (all electrons):
               1          2          3
     1  O    7.743046   0.355022   0.355022
     2  H    0.355022   0.440115  -0.021683
     3  H    0.355022  -0.021683   0.440115
 Mulliken charges:
               1
     1  O   -0.453091
     2  H    0.226545
     3  H    0.226545
 Sum of Mulliken charges =   0.00000
 Mulliken charges with hydrogens summed into heavy atoms:
               1
     1  O    0.000000
 APT charges:
               1
     1  O   -0.522896
     2  H    0.261448
     3  H    0.261448
 Sum of APT charges =   0.00000
 APT charges with hydrogens summed into heavy atoms:
               1
     1  O    0.000000
 Electronic spatial extent (au):  <R**2>=             19.7801
 Charge=              0.0000 electrons
 Dipole moment (field-independent basis, Debye):
    X=             -0.0000    Y=              0.0000    Z=             -2.0027  Tot=              2.0027
 Quadrupole moment (field-independent basis, Debye-Ang):
   XX=             -7.6043   YY=             -4.3586   ZZ=             -6.3061
   XY=              0.0000   XZ=              0.0000   YZ=             -0.0000
 Traceless Quadrupole moment (field-independent basis, Debye-Ang):
   XX=             -1.5147   YY=              1.7311   ZZ=             -0.2164
   XY=              0.0000   XZ=              0.0000   YZ=             -0.0000
 Octapole moment (field-independent basis, Debye-Ang**2):
  XXX=              0.0000  YYY=              0.0000  ZZZ=             -1.2790  XYY=             -0.0000
  XXY=             -0.0000  XXZ=             -0.3340  XZZ=              0.0000  YZZ=             -0.0000
  YYZ=             -1.3638  XYZ=             -0.0000
 Hexadecapole moment (field-independent basis, Debye-Ang**3):
 XXXX=             -6.7244 YYYY=             -6.2318 ZZZZ=             -7.3370 XXXY=             -0.0000
 XXXZ=             -0.0000 YYYX=             -0.0000 YYYZ=             -0.0000 ZZZX=             -0.0000
 ZZZY=             -0.0000 XXYY=             -2.4721 XXZZ=             -2.4006 YYZZ=             -1.9175
 XXYZ=              0.0000 YYXZ=              0.0000 ZZXY=              0.0000
 N-N= 9.084265750402D+00 E-N=-1.988736911900D+02  KE= 7.605376464916D+01
 Symmetry A1   KE= 6.797174853750D+01
 Symmetry A2   KE=-6.923950615598D-21
 Symmetry B1   KE= 4.484476790084D+00
 Symmetry B2   KE= 3.597539321570D+00
  Exact polarizability:       6.127      -0.000       8.542      -0.000       0.000       7.374
 Approx polarizability:       6.063       0.000       9.572       0.000       0.000       8.146
 Calling FoFJK, ICntrl=    100127 FMM=F ISym2X=1 I1Cent= 0 IOpClX= 0 NMat=1 NMatS=1 NMatT=0.
 ***** Axes restored to original set *****
 -------------------------------------------------------------------
 Center     Atomic                   Forces (Hartrees/Bohr)
 Number     Number              X              Y              Z
 -------------------------------------------------------------------
      1        8           0.014814727    0.000000000    0.011579114
      2        1          -0.000372832    0.000000000   -0.014789785
      3        1          -0.014441895   -0.000000000    0.003210671
 -------------------------------------------------------------------
 Cartesian Forces:  Max     0.014814727 RMS     0.009376718
 FormGI is forming the generalized inverse of G from B-inverse, IUseBI=4.

 GradGradGradGradGradGradGradGradGradGradGradGradGradGradGradGradGradGrad
 Berny optimization.
 Internal  Forces:  Max     0.014789785 RMS     0.012082240
 Search for a local minimum.
 Step number   1 out of a maximum of   20
 All quantities printed in internal units (Hartrees-Bohrs-Radians)
 Mixed Optimization -- RFO/linear search
 Second derivative matrix not updated -- analytic derivatives used.
 The second derivative matrix:
                          R1        R2        A1
           R1           0.51359
           R2          -0.00488   0.51359
           A1           0.02942   0.02942   0.16342
 ITU=  0
     Eigenvalues ---    0.15848   0.51365   0.51846
 RFO step:  Lambda=-8.93970256D-04 EMin= 1.58476415D-01
 Linear search not attempted -- first point.
 Iteration  1 RMS(Cart)=  0.01848019 RMS(Int)=  0.00014787
 Iteration  2 RMS(Cart)=  0.00016076 RMS(Int)=  0.00000001
 Iteration  3 RMS(Cart)=  0.00000001 RMS(Int)=  0.00000000
 ClnCor:  largest displacement from symmetrization is 1.04D-14 for atom     3.
 Variable       Old X    -DE/DX   Delta X   Delta X   Delta X     New X
                                 (Linear)    (Quad)   (Total)
    R1        1.83114  -0.01479   0.00000  -0.02988  -0.02988   1.80126
    R2        1.83114  -0.01479   0.00000  -0.02988  -0.02988   1.80126
    A1        1.81476   0.00068   0.00000   0.01486   0.01486   1.82961
         Item               Value     Threshold  Converged?
 Maximum Force            0.014790     0.000002     NO 
 RMS     Force            0.012082     0.000001     NO 
 Maximum Displacement     0.018035     0.000006     NO 
 RMS     Displacement     0.018533     0.000004     NO 
 Predicted change in Energy=-4.478837D-04
 GradGradGradGradGradGradGradGradGradGradGradGradGradGradGradGradGradGrad

                          Input orientation:                          
 ---------------------------------------------------------------------
 Center     Atomic      Atomic             Coordinates (Angstroms)
 Number     Number       Type             X           Y           Z
 ---------------------------------------------------------------------
      1          8           0        0.008053   -0.000000    0.006294
      2          1           0        0.000973   -0.000000    0.959456
      3          1           0        0.931280    0.000000   -0.230812
 ---------------------------------------------------------------------
                    Distance matrix (angstroms):
                    1          2          3
     1  O    0.000000
     2  H    0.953188   0.000000
     3  H    0.953188   1.510698   0.000000
 Stoichiometry    H2O
 Framework group  C2V[C2(O),SGV(H2)]
 Deg. of freedom     2
 Full point group                 C2V     NOp   4
 Largest Abelian subgroup         C2V     NOp   4
 Largest concise Abelian subgroup C2      NOp   2
                         Standard orientation:                         
 ---------------------------------------------------------------------
 Center     Atomic      Atomic             Coordinates (Angstroms)
 Number     Number       Type             X           Y           Z
 ---------------------------------------------------------------------
      1          8           0        0.000000    0.000000    0.116278
      2          1           0        0.000000    0.755349   -0.465113
      3          1           0       -0.000000   -0.755349   -0.465113
 ---------------------------------------------------------------------
 Rotational constants (GHZ):         835.2387731         439.4471389         287.9480237
 Basis read from rwf:  (5D, 7F)
 There are    27 symmetry adapted cartesian basis functions of A1  symmetry.
 There are     7 symmetry adapted cartesian basis functions of A2  symmetry.
 There are    12 symmetry adapted cartesian basis functions of B1  symmetry.
 There are    19 symmetry adapted cartesian basis functions of B2  symmetry.
 There are    23 symmetry adapted basis functions of A1  symmetry.
 There are     7 symmetry adapted basis functions of A2  symmetry.
 There are    11 symmetry adapted basis functions of B1  symmetry.
 There are    17 symmetry adapted basis functions of B2  symmetry.
    58 basis functions,    91 primitive gaussians,    65 cartesian basis functions
     5 alpha electrons        5 beta electrons
       nuclear repulsion energy         9.2329338683 Hartrees.
 NAtoms=    3 NActive=    3 NUniq=    2 SFac= 2.25D+00 NAtFMM=   60 NAOKFM=F Big=F
 Integral buffers will be    131072 words long.
 Raffenetti 2 integral format.
 Two-electron integral symmetry is turned on.
 One-electron integrals computed using PRISM.
 NBasis=    58 RedAO= T EigKep=  4.10D-03  NBF=    23     7    11    17
 NBsUse=    58 1.00D-06 EigRej= -1.00D+00 NBFU=    23     7    11    17
 Initial guess from the checkpoint file:  "/jobfs/8424109.gadi-pbs/Gau-1579400.chk"
 B after Tr=     0.000000   -0.000000   -0.000000
         Rot=    1.000000    0.000000   -0.000000    0.000000 Ang=   0.00 deg.
 Initial guess orbital symmetries:
       Occupied  (A1) (A1) (B2) (A1) (B1)
       Virtual   (A1) (B2) (B2) (A1) (A1) (B1) (B2) (A1) (A2) (A1)
                 (B1) (B2) (B2) (A1) (A1) (B2) (B1) (A2) (A1) (A1)
                 (B2) (B1) (A1) (B1) (B2) (A1) (A2) (B2) (B1) (B2)
                 (A1) (A2) (A1) (B2) (B1) (A2) (A1) (B2) (B2) (A1)
                 (B1) (A1) (B1) (B2) (A2) (B1) (A2) (A1) (A1) (A1)
                 (B2) (B2) (A1)
 Keep R1 ints in memory in symmetry-blocked form, NReq=3432820.
 Requested convergence on RMS density matrix=1.00D-08 within 128 cycles.
 Requested convergence on MAX density matrix=1.00D-06.
 Requested convergence on             energy=1.00D-06.
 No special actions if energy rises.
 SCF Done:  E(RSOGGA11X) =  -76.4357723584     A.U. after    8 cycles
            NFock=  8  Conv=0.10D-08     -V/T= 2.0043
 DoSCS=F DFT=T ScalE2(SS,OS)=  1.000000  1.000000
 Range of M.O.s used for correlation:     1    58
 NBasis=    58 NAE=     5 NBE=     5 NFC=     0 NFV=     0
 NROrb=     58 NOA=     5 NOB=     5 NVA=    53 NVB=    53
 Symmetrizing basis deriv contribution to polar:
 IMax=3 JMax=2 DiffMx= 0.00D+00
 G2DrvN: will do     4 centers at a time, making    1 passes.
 Calling FoFCou, ICntrl=  3107 FMM=F I1Cent=   0 AccDes= 0.00D+00.
 End of G2Drv F.D. properties file   721 does not exist.
 End of G2Drv F.D. properties file   722 does not exist.
 End of G2Drv F.D. properties file   788 does not exist.
          IDoAtm=111
          Differentiating once with respect to electric field.
                with respect to dipole field.
          Differentiating once with respect to nuclear coordinates.
 Keep R1 ints in memory in symmetry-blocked form, NReq=3434326.
          There are     9 degrees of freedom in the 1st order CPHF.  IDoFFX=4 NUNeed=     9.
      9 vectors produced by pass  0 Test12= 2.94D-15 1.11D-08 XBig12= 2.81D+00 1.04D+00.
 AX will form     9 AO Fock derivatives at one time.
      9 vectors produced by pass  1 Test12= 2.94D-15 1.11D-08 XBig12= 3.46D-01 2.79D-01.
      9 vectors produced by pass  2 Test12= 2.94D-15 1.11D-08 XBig12= 6.63D-03 3.19D-02.
      9 vectors produced by pass  3 Test12= 2.94D-15 1.11D-08 XBig12= 3.09D-05 2.63D-03.
      9 vectors produced by pass  4 Test12= 2.94D-15 1.11D-08 XBig12= 1.30D-07 1.21D-04.
      8 vectors produced by pass  5 Test12= 2.94D-15 1.11D-08 XBig12= 1.81D-10 4.62D-06.
      3 vectors produced by pass  6 Test12= 2.94D-15 1.11D-08 XBig12= 1.32D-13 1.12D-07.
 InvSVY:  IOpt=1 It=  1 EMax= 2.22D-16
 Solved reduced A of dimension    56 with     9 vectors.
 Isotropic polarizability for W=    0.000000        7.18 Bohr**3.
 End of Minotr F.D. properties file   721 does not exist.
 End of Minotr F.D. properties file   722 does not exist.
 End of Minotr F.D. properties file   788 does not exist.
 Calling FoFJK, ICntrl=    100127 FMM=F ISym2X=1 I1Cent= 0 IOpClX= 0 NMat=1 NMatS=1 NMatT=0.
 ***** Axes restored to original set *****
 -------------------------------------------------------------------
 Center     Atomic                   Forces (Hartrees/Bohr)
 Number     Number              X              Y              Z
 -------------------------------------------------------------------
      1        8          -0.000774890    0.000000000   -0.000605650
      2        1          -0.000027793    0.000000000    0.000834095
      3        1           0.000802683   -0.000000000   -0.000228445
 -------------------------------------------------------------------
 Cartesian Forces:  Max     0.000834095 RMS     0.000512102
 FormGI is forming the generalized inverse of G from B-inverse, IUseBI=4.

 GradGradGradGradGradGradGradGradGradGradGradGradGradGradGradGradGradGrad
 Berny optimization.
 Using GEDIIS/GDIIS optimizer.
 Internal  Forces:  Max     0.000834279 RMS     0.000681556
 Search for a local minimum.
 Step number   2 out of a maximum of   20
 All quantities printed in internal units (Hartrees-Bohrs-Radians)
 Mixed Optimization -- En-DIIS/RFO-DIIS
 Second derivative matrix not updated -- analytic derivatives used.
 DE= -4.31D-04 DEPred=-4.48D-04 R= 9.62D-01
 TightC=F SS=  1.41D+00  RLast= 4.48D-02 DXNew= 5.0454D-01 1.3437D-01
 Trust test= 9.62D-01 RLast= 4.48D-02 DXMaxT set to 3.00D-01
 The second derivative matrix:
                          R1        R2        A1
           R1           0.57271
           R2          -0.00531   0.57271
           A1           0.03016   0.03016   0.16275
 ITU=  1  0
 Use linear search instead of GDIIS.
     Eigenvalues ---    0.15830   0.57185   0.57802
 RFO step:  Lambda=-4.88851734D-08 EMin= 1.58302367D-01
 Quintic linear search produced a step of -0.04963.
 Iteration  1 RMS(Cart)=  0.00100874 RMS(Int)=  0.00000009
 Iteration  2 RMS(Cart)=  0.00000009 RMS(Int)=  0.00000000
 ClnCor:  largest displacement from symmetrization is 3.13D-15 for atom     3.
 Variable       Old X    -DE/DX   Delta X   Delta X   Delta X     New X
                                 (Linear)    (Quad)   (Total)
    R1        1.80126   0.00083   0.00148   0.00001   0.00149   1.80276
    R2        1.80126   0.00083   0.00148   0.00001   0.00149   1.80276
    A1        1.82961   0.00004  -0.00074   0.00054  -0.00019   1.82942
         Item               Value     Threshold  Converged?
 Maximum Force            0.000834     0.000002     NO 
 RMS     Force            0.000682     0.000001     NO 
 Maximum Displacement     0.001064     0.000006     NO 
 RMS     Displacement     0.001009     0.000004     NO 
 Predicted change in Energy=-1.233232D-06
 GradGradGradGradGradGradGradGradGradGradGradGradGradGradGradGradGradGrad

                          Input orientation:                          
 ---------------------------------------------------------------------
 Center     Atomic      Atomic             Coordinates (Angstroms)
 Number     Number       Type             X           Y           Z
 ---------------------------------------------------------------------
      1          8           0        0.007761   -0.000000    0.006066
      2          1           0        0.000768   -0.000000    0.960019
      3          1           0        0.931777    0.000000   -0.231147
 ---------------------------------------------------------------------
                    Distance matrix (angstroms):
                    1          2          3
     1  O    0.000000
     2  H    0.953978   0.000000
     3  H    0.953978   1.511838   0.000000
 Stoichiometry    H2O
 Framework group  C2V[C2(O),SGV(H2)]
 Deg. of freedom     2
 Full point group                 C2V     NOp   4
 Largest Abelian subgroup         C2V     NOp   4
 Largest concise Abelian subgroup C2      NOp   2
                         Standard orientation:                         
 ---------------------------------------------------------------------
 Center     Atomic      Atomic             Coordinates (Angstroms)
 Number     Number       Type             X           Y           Z
 ---------------------------------------------------------------------
      1          8           0        0.000000    0.000000    0.116389
      2          1           0       -0.000000    0.755919   -0.465557
      3          1           0       -0.000000   -0.755919   -0.465557
 ---------------------------------------------------------------------
 Rotational constants (GHZ):         833.6460629         438.7848981         287.4743809
 Basis read from rwf:  (5D, 7F)
 There are    27 symmetry adapted cartesian basis functions of A1  symmetry.
 There are     7 symmetry adapted cartesian basis functions of A2  symmetry.
 There are    12 symmetry adapted cartesian basis functions of B1  symmetry.
 There are    19 symmetry adapted cartesian basis functions of B2  symmetry.
 There are    23 symmetry adapted basis functions of A1  symmetry.
 There are     7 symmetry adapted basis functions of A2  symmetry.
 There are    11 symmetry adapted basis functions of B1  symmetry.
 There are    17 symmetry adapted basis functions of B2  symmetry.
    58 basis functions,    91 primitive gaussians,    65 cartesian basis functions
     5 alpha electrons        5 beta electrons
       nuclear repulsion energy         9.2253128349 Hartrees.
 NAtoms=    3 NActive=    3 NUniq=    2 SFac= 2.25D+00 NAtFMM=   60 NAOKFM=F Big=F
 Integral buffers will be    131072 words long.
 Raffenetti 2 integral format.
 Two-electron integral symmetry is turned on.
 One-electron integrals computed using PRISM.
 NBasis=    58 RedAO= T EigKep=  4.11D-03  NBF=    23     7    11    17
 NBsUse=    58 1.00D-06 EigRej= -1.00D+00 NBFU=    23     7    11    17
 Initial guess from the checkpoint file:  "/jobfs/8424109.gadi-pbs/Gau-1579400.chk"
 B after Tr=    -0.000000    0.000000   -0.000000
         Rot=    1.000000   -0.000000    0.000000    0.000000 Ang=   0.00 deg.
 Initial guess orbital symmetries:
       Occupied  (A1) (A1) (B2) (A1) (B1)
       Virtual   (A1) (B2) (B2) (A1) (A1) (B1) (B2) (A1) (A2) (A1)
                 (B1) (B2) (B2) (A1) (A1) (B2) (B1) (A2) (A1) (A1)
                 (B2) (B1) (A1) (B1) (B2) (A1) (A2) (B2) (B1) (B2)
                 (A1) (A2) (A1) (B2) (B1) (A2) (A1) (B2) (B2) (A1)
                 (B1) (A1) (B1) (B2) (A2) (B1) (A1) (A2) (A1) (A1)
                 (B2) (B2) (A1)
 Keep R1 ints in memory in symmetry-blocked form, NReq=3432820.
 Requested convergence on RMS density matrix=1.00D-08 within 128 cycles.
 Requested convergence on MAX density matrix=1.00D-06.
 Requested convergence on             energy=1.00D-06.
 No special actions if energy rises.
 SCF Done:  E(RSOGGA11X) =  -76.4357735939     A.U. after    6 cycles
            NFock=  6  Conv=0.60D-08     -V/T= 2.0043
 DoSCS=F DFT=T ScalE2(SS,OS)=  1.000000  1.000000
 Range of M.O.s used for correlation:     1    58
 NBasis=    58 NAE=     5 NBE=     5 NFC=     0 NFV=     0
 NROrb=     58 NOA=     5 NOB=     5 NVA=    53 NVB=    53
 Symmetrizing basis deriv contribution to polar:
 IMax=3 JMax=2 DiffMx= 0.00D+00
 G2DrvN: will do     4 centers at a time, making    1 passes.
 Calling FoFCou, ICntrl=  3107 FMM=F I1Cent=   0 AccDes= 0.00D+00.
 End of G2Drv F.D. properties file   721 does not exist.
 End of G2Drv F.D. properties file   722 does not exist.
 End of G2Drv F.D. properties file   788 does not exist.
          IDoAtm=111
          Differentiating once with respect to electric field.
                with respect to dipole field.
          Differentiating once with respect to nuclear coordinates.
 Keep R1 ints in memory in symmetry-blocked form, NReq=3434326.
          There are     9 degrees of freedom in the 1st order CPHF.  IDoFFX=4 NUNeed=     9.
      9 vectors produced by pass  0 Test12= 2.94D-15 1.11D-08 XBig12= 2.82D+00 1.04D+00.
 AX will form     9 AO Fock derivatives at one time.
      9 vectors produced by pass  1 Test12= 2.94D-15 1.11D-08 XBig12= 3.48D-01 2.79D-01.
      9 vectors produced by pass  2 Test12= 2.94D-15 1.11D-08 XBig12= 6.67D-03 3.20D-02.
      9 vectors produced by pass  3 Test12= 2.94D-15 1.11D-08 XBig12= 3.11D-05 2.65D-03.
      9 vectors produced by pass  4 Test12= 2.94D-15 1.11D-08 XBig12= 1.31D-07 1.22D-04.
      8 vectors produced by pass  5 Test12= 2.94D-15 1.11D-08 XBig12= 1.82D-10 4.64D-06.
      3 vectors produced by pass  6 Test12= 2.94D-15 1.11D-08 XBig12= 1.32D-13 1.12D-07.
 InvSVY:  IOpt=1 It=  1 EMax= 2.22D-16
 Solved reduced A of dimension    56 with     9 vectors.
 Isotropic polarizability for W=    0.000000        7.19 Bohr**3.
 End of Minotr F.D. properties file   721 does not exist.
 End of Minotr F.D. properties file   722 does not exist.
 End of Minotr F.D. properties file   788 does not exist.
 Calling FoFJK, ICntrl=    100127 FMM=F ISym2X=1 I1Cent= 0 IOpClX= 0 NMat=1 NMatS=1 NMatT=0.
 ***** Axes restored to original set *****
 -------------------------------------------------------------------
 Center     Atomic                   Forces (Hartrees/Bohr)
 Number     Number              X              Y              Z
 -------------------------------------------------------------------
      1        8          -0.000008922    0.000000000   -0.000006973
      2        1           0.000010892    0.000000000   -0.000004741
      3        1          -0.000001970   -0.000000000    0.000011714
 -------------------------------------------------------------------
 Cartesian Forces:  Max     0.000011714 RMS     0.000006753
 FormGI is forming the generalized inverse of G from B-inverse, IUseBI=4.

 GradGradGradGradGradGradGradGradGradGradGradGradGradGradGradGradGradGrad
 Berny optimization.
 Using GEDIIS/GDIIS optimizer.
 Internal  Forces:  Max     0.000019572 RMS     0.000011966
 Search for a local minimum.
 Step number   3 out of a maximum of   20
 All quantities printed in internal units (Hartrees-Bohrs-Radians)
 Mixed Optimization -- En-DIIS/RFO-DIIS
 Swapping is turned off.
 Second derivative matrix not updated -- analytic derivatives used.
 DE= -1.24D-06 DEPred=-1.23D-06 R= 1.00D+00
 TightC=F SS=  1.41D+00  RLast= 2.12D-03 DXNew= 5.0454D-01 6.3614D-03
 Trust test= 1.00D+00 RLast= 2.12D-03 DXMaxT set to 3.00D-01
 The second derivative matrix:
                          R1        R2        A1
           R1           0.56966
           R2          -0.00531   0.56966
           A1           0.03011   0.03011   0.16270
 ITU=  1  1  0
     Eigenvalues ---    0.15824   0.56882   0.57497
 En-DIIS/RFO-DIIS/Sim-DIIS IScMMF=       -3 using points:     3    2
 RFO step:  Lambda= 0.00000000D+00.
 DidBck=F Rises=F RFO-DIIS coefs:    1.00371   -0.00371
 Iteration  1 RMS(Cart)=  0.00006782 RMS(Int)=  0.00000000
 Iteration  2 RMS(Cart)=  0.00000000 RMS(Int)=  0.00000000
 ClnCor:  largest displacement from symmetrization is 6.50D-15 for atom     3.
 Variable       Old X    -DE/DX   Delta X   Delta X   Delta X     New X
                                 (Linear)    (Quad)   (Total)
    R1        1.80276  -0.00000   0.00001  -0.00001  -0.00000   1.80276
    R2        1.80276  -0.00000   0.00001  -0.00001  -0.00000   1.80276
    A1        1.82942  -0.00002  -0.00000  -0.00012  -0.00012   1.82930
         Item               Value     Threshold  Converged?
 Maximum Force            0.000020     0.000002     NO 
 RMS     Force            0.000012     0.000001     NO 
 Maximum Displacement     0.000070     0.000006     NO 
 RMS     Displacement     0.000068     0.000004     NO 
 Predicted change in Energy=-1.179775D-09
 GradGradGradGradGradGradGradGradGradGradGradGradGradGradGradGradGradGrad

                          Input orientation:                          
 ---------------------------------------------------------------------
 Center     Atomic      Atomic             Coordinates (Angstroms)
 Number     Number       Type             X           Y           Z
 ---------------------------------------------------------------------
      1          8           0        0.007738   -0.000000    0.006048
      2          1           0        0.000802   -0.000000    0.960000
      3          1           0        0.931767    0.000000   -0.231109
 ---------------------------------------------------------------------
                    Distance matrix (angstroms):
                    1          2          3
     1  O    0.000000
     2  H    0.953977   0.000000
     3  H    0.953977   1.511766   0.000000
 Stoichiometry    H2O
 Framework group  C2V[C2(O),SGV(H2)]
 Deg. of freedom     2
 Full point group                 C2V     NOp   4
 Largest Abelian subgroup         C2V     NOp   4
 Largest concise Abelian subgroup C2      NOp   2
                         Standard orientation:                         
 ---------------------------------------------------------------------
 Center     Atomic      Atomic             Coordinates (Angstroms)
 Number     Number       Type             X           Y           Z
 ---------------------------------------------------------------------
      1          8           0       -0.000000    0.000000    0.116398
      2          1           0        0.000000    0.755883   -0.465593
      3          1           0       -0.000000   -0.755883   -0.465593
 ---------------------------------------------------------------------
 Rotational constants (GHZ):         833.5187119         438.8263274         287.4770159
 Basis read from rwf:  (5D, 7F)
 There are    27 symmetry adapted cartesian basis functions of A1  symmetry.
 There are     7 symmetry adapted cartesian basis functions of A2  symmetry.
 There are    12 symmetry adapted cartesian basis functions of B1  symmetry.
 There are    19 symmetry adapted cartesian basis functions of B2  symmetry.
 There are    23 symmetry adapted basis functions of A1  symmetry.
 There are     7 symmetry adapted basis functions of A2  symmetry.
 There are    11 symmetry adapted basis functions of B1  symmetry.
 There are    17 symmetry adapted basis functions of B2  symmetry.
    58 basis functions,    91 primitive gaussians,    65 cartesian basis functions
     5 alpha electrons        5 beta electrons
       nuclear repulsion energy         9.2253401034 Hartrees.
 NAtoms=    3 NActive=    3 NUniq=    2 SFac= 2.25D+00 NAtFMM=   60 NAOKFM=F Big=F
 Integral buffers will be    131072 words long.
 Raffenetti 2 integral format.
 Two-electron integral symmetry is turned on.
 One-electron integrals computed using PRISM.
 NBasis=    58 RedAO= T EigKep=  4.11D-03  NBF=    23     7    11    17
 NBsUse=    58 1.00D-06 EigRej= -1.00D+00 NBFU=    23     7    11    17
 Initial guess from the checkpoint file:  "/jobfs/8424109.gadi-pbs/Gau-1579400.chk"
 B after Tr=     0.000000    0.000000    0.000000
         Rot=    1.000000   -0.000000    0.000000   -0.000000 Ang=   0.00 deg.
 Initial guess orbital symmetries:
       Occupied  (A1) (A1) (B2) (A1) (B1)
       Virtual   (A1) (B2) (B2) (A1) (A1) (B1) (B2) (A1) (A2) (A1)
                 (B1) (B2) (B2) (A1) (A1) (B2) (B1) (A2) (A1) (A1)
                 (B2) (B1) (A1) (B1) (B2) (A1) (A2) (B2) (B1) (B2)
                 (A1) (A2) (A1) (B2) (B1) (A2) (A1) (B2) (B2) (A1)
                 (B1) (A1) (B1) (B2) (A2) (B1) (A1) (A2) (A1) (A1)
                 (B2) (B2) (A1)
 Keep R1 ints in memory in symmetry-blocked form, NReq=3432820.
 Requested convergence on RMS density matrix=1.00D-08 within 128 cycles.
 Requested convergence on MAX density matrix=1.00D-06.
 Requested convergence on             energy=1.00D-06.
 No special actions if energy rises.
 SCF Done:  E(RSOGGA11X) =  -76.4357735950     A.U. after    3 cycles
            NFock=  3  Conv=0.88D-08     -V/T= 2.0043
 DoSCS=F DFT=T ScalE2(SS,OS)=  1.000000  1.000000
 Range of M.O.s used for correlation:     1    58
 NBasis=    58 NAE=     5 NBE=     5 NFC=     0 NFV=     0
 NROrb=     58 NOA=     5 NOB=     5 NVA=    53 NVB=    53
 Symmetrizing basis deriv contribution to polar:
 IMax=3 JMax=2 DiffMx= 0.00D+00
 G2DrvN: will do     4 centers at a time, making    1 passes.
 Calling FoFCou, ICntrl=  3107 FMM=F I1Cent=   0 AccDes= 0.00D+00.
 End of G2Drv F.D. properties file   721 does not exist.
 End of G2Drv F.D. properties file   722 does not exist.
 End of G2Drv F.D. properties file   788 does not exist.
          IDoAtm=111
          Differentiating once with respect to electric field.
                with respect to dipole field.
          Differentiating once with respect to nuclear coordinates.
 Keep R1 ints in memory in symmetry-blocked form, NReq=3434326.
          There are     9 degrees of freedom in the 1st order CPHF.  IDoFFX=4 NUNeed=     9.
      9 vectors produced by pass  0 Test12= 2.94D-15 1.11D-08 XBig12= 2.82D+00 1.04D+00.
 AX will form     9 AO Fock derivatives at one time.
      9 vectors produced by pass  1 Test12= 2.94D-15 1.11D-08 XBig12= 3.48D-01 2.79D-01.
      9 vectors produced by pass  2 Test12= 2.94D-15 1.11D-08 XBig12= 6.67D-03 3.20D-02.
      9 vectors produced by pass  3 Test12= 2.94D-15 1.11D-08 XBig12= 3.11D-05 2.65D-03.
      9 vectors produced by pass  4 Test12= 2.94D-15 1.11D-08 XBig12= 1.31D-07 1.22D-04.
      8 vectors produced by pass  5 Test12= 2.94D-15 1.11D-08 XBig12= 1.82D-10 4.64D-06.
      3 vectors produced by pass  6 Test12= 2.94D-15 1.11D-08 XBig12= 1.32D-13 1.12D-07.
 InvSVY:  IOpt=1 It=  1 EMax= 2.55D-16
 Solved reduced A of dimension    56 with     9 vectors.
 Isotropic polarizability for W=    0.000000        7.19 Bohr**3.
 End of Minotr F.D. properties file   721 does not exist.
 End of Minotr F.D. properties file   722 does not exist.
 End of Minotr F.D. properties file   788 does not exist.
 Calling FoFJK, ICntrl=    100127 FMM=F ISym2X=1 I1Cent= 0 IOpClX= 0 NMat=1 NMatS=1 NMatT=0.
 ***** Axes restored to original set *****
 -------------------------------------------------------------------
 Center     Atomic                   Forces (Hartrees/Bohr)
 Number     Number              X              Y              Z
 -------------------------------------------------------------------
      1        8           0.000000020    0.000000000    0.000000015
      2        1          -0.000000001    0.000000000   -0.000000019
      3        1          -0.000000018   -0.000000000    0.000000003
 -------------------------------------------------------------------
 Cartesian Forces:  Max     0.000000020 RMS     0.000000012
 FormGI is forming the generalized inverse of G from B-inverse, IUseBI=4.

 GradGradGradGradGradGradGradGradGradGradGradGradGradGradGradGradGradGrad
 Berny optimization.
 Using GEDIIS/GDIIS optimizer.
 Internal  Forces:  Max     0.000000019 RMS     0.000000015
 Search for a local minimum.
 Step number   4 out of a maximum of   20
 All quantities printed in internal units (Hartrees-Bohrs-Radians)
 Mixed Optimization -- En-DIIS/RFO-DIIS
 Swapping is turned off.
 Second derivative matrix not updated -- analytic derivatives used.
 DE= -1.18D-09 DEPred=-1.18D-09 R= 1.00D+00
 Trust test= 1.00D+00 RLast= 1.20D-04 DXMaxT set to 3.00D-01
 The second derivative matrix:
                          R1        R2        A1
           R1           0.56966
           R2          -0.00530   0.56966
           A1           0.03011   0.03011   0.16272
 ITU=  0  1  1  0
     Eigenvalues ---    0.15826   0.56883   0.57497
 En-DIIS/RFO-DIIS/Sim-DIIS IScMMF=       -3 using points:     4    3    2
 RFO step:  Lambda= 0.00000000D+00.
 DIIS inversion failure, remove point   3.
 DIIS inversion failure, remove point   2.
 Use linear search instead of GDIIS.
 RFO step:  Lambda= 0.00000000D+00 EMin= 1.58255994D-01
 Quintic linear search produced a step of -0.00010.
 Iteration  1 RMS(Cart)=  0.00000002 RMS(Int)=  0.00000000
 ClnCor:  largest displacement from symmetrization is 8.83D-15 for atom     3.
 Variable       Old X    -DE/DX   Delta X   Delta X   Delta X     New X
                                 (Linear)    (Quad)   (Total)
    R1        1.80276  -0.00000   0.00000  -0.00000  -0.00000   1.80276
    R2        1.80276  -0.00000   0.00000  -0.00000  -0.00000   1.80276
    A1        1.82930   0.00000   0.00000   0.00000   0.00000   1.82930
         Item               Value     Threshold  Converged?
 Maximum Force            0.000000     0.000002     YES
 RMS     Force            0.000000     0.000001     YES
 Maximum Displacement     0.000000     0.000006     YES
 RMS     Displacement     0.000000     0.000004     YES
 Predicted change in Energy=-6.817477D-16
 Optimization completed.
    -- Stationary point found.
                           ----------------------------
                           !   Optimized Parameters   !
                           ! (Angstroms and Degrees)  !
 --------------------------                            --------------------------
 ! Name  Definition              Value          Derivative Info.                !
 --------------------------------------------------------------------------------
 ! R1    R(1,2)                  0.954          -DE/DX =    0.0                 !
 ! R2    R(1,3)                  0.954          -DE/DX =    0.0                 !
 ! A1    A(2,1,3)              104.8112         -DE/DX =    0.0                 !
 --------------------------------------------------------------------------------
 GradGradGradGradGradGradGradGradGradGradGradGradGradGradGradGradGradGrad

                          Input orientation:                          
 ---------------------------------------------------------------------
 Center     Atomic      Atomic             Coordinates (Angstroms)
 Number     Number       Type             X           Y           Z
 ---------------------------------------------------------------------
      1          8           0        0.007738   -0.000000    0.006048
      2          1           0        0.000802   -0.000000    0.960000
      3          1           0        0.931767    0.000000   -0.231109
 ---------------------------------------------------------------------
                    Distance matrix (angstroms):
                    1          2          3
     1  O    0.000000
     2  H    0.953977   0.000000
     3  H    0.953977   1.511766   0.000000
 Stoichiometry    H2O
 Framework group  C2V[C2(O),SGV(H2)]
 Deg. of freedom     2
 Full point group                 C2V     NOp   4
 Largest Abelian subgroup         C2V     NOp   4
 Largest concise Abelian subgroup C2      NOp   2
                         Standard orientation:                         
 ---------------------------------------------------------------------
 Center     Atomic      Atomic             Coordinates (Angstroms)
 Number     Number       Type             X           Y           Z
 ---------------------------------------------------------------------
      1          8           0       -0.000000    0.000000    0.116398
      2          1           0       -0.000000    0.755883   -0.465593
      3          1           0       -0.000000   -0.755883   -0.465593
 ---------------------------------------------------------------------
 Rotational constants (GHZ):         833.5187119         438.8263274         287.4770159

 **********************************************************************

            Population analysis using the SCF Density.

 **********************************************************************

 Orbital symmetries:
       Occupied  (A1) (A1) (B2) (A1) (B1)
       Virtual   (A1) (B2) (B2) (A1) (A1) (B1) (B2) (A1) (A2) (A1)
                 (B1) (B2) (B2) (A1) (A1) (B2) (B1) (A2) (A1) (A1)
                 (B2) (B1) (A1) (B1) (B2) (A1) (A2) (B2) (B1) (B2)
                 (A1) (A2) (A1) (B2) (B1) (A2) (A1) (B2) (B2) (A1)
                 (B1) (A1) (B1) (B2) (A2) (B1) (A1) (A2) (A1) (A1)
                 (B2) (B2) (A1)
 The electronic state is 1-A1.
 Alpha  occ. eigenvalues --  -19.50256  -1.12182  -0.59283  -0.45108  -0.37385
 Alpha virt. eigenvalues --    0.03504   0.08507   0.31487   0.32385   0.37797
 Alpha virt. eigenvalues --    0.38371   0.49111   0.71048   0.80134   0.83083
 Alpha virt. eigenvalues --    0.90657   1.08453   1.21717   1.26982   1.49178
 Alpha virt. eigenvalues --    1.51870   1.82225   1.88514   1.92583   2.13058
 Alpha virt. eigenvalues --    2.18043   2.38561   2.99652   3.43805   3.47733
 Alpha virt. eigenvalues --    3.57976   3.64354   3.78459   3.86412   3.94195
 Alpha virt. eigenvalues --    4.08143   4.12494   4.35722   4.45149   4.54206
 Alpha virt. eigenvalues --    4.57949   4.72233   4.90774   4.98044   5.01197
 Alpha virt. eigenvalues --    5.05520   5.71228   6.03635   6.08238   6.25044
 Alpha virt. eigenvalues --    6.33268   6.39773   6.42267   6.45238   6.96813
 Alpha virt. eigenvalues --    7.06059   7.53426  15.18905
          Condensed to atoms (all electrons):
               1          2          3
     1  O    7.710004   0.362677   0.362677
     2  H    0.362677   0.442534  -0.022891
     3  H    0.362677  -0.022891   0.442534
 Mulliken charges:
               1
     1  O   -0.435359
     2  H    0.217679
     3  H    0.217679
 Sum of Mulliken charges =   0.00000
 Mulliken charges with hydrogens summed into heavy atoms:
               1
     1  O    0.000000
 APT charges:
               1
     1  O   -0.533267
     2  H    0.266633
     3  H    0.266633
 Sum of APT charges =   0.00000
 APT charges with hydrogens summed into heavy atoms:
               1
     1  O    0.000000
 Electronic spatial extent (au):  <R**2>=             19.5826
 Charge=              0.0000 electrons
 Dipole moment (field-independent basis, Debye):
    X=             -0.0000    Y=             -0.0000    Z=             -1.9810  Tot=              1.9810
 Quadrupole moment (field-independent basis, Debye-Ang):
   XX=             -7.5713   YY=             -4.3534   ZZ=             -6.3227
   XY=              0.0000   XZ=              0.0000   YZ=              0.0000
 Traceless Quadrupole moment (field-independent basis, Debye-Ang):
   XX=             -1.4888   YY=              1.7291   ZZ=             -0.2402
   XY=              0.0000   XZ=              0.0000   YZ=              0.0000
 Octapole moment (field-independent basis, Debye-Ang**2):
  XXX=              0.0000  YYY=             -0.0000  ZZZ=             -1.2779  XYY=             -0.0000
  XXY=             -0.0000  XXZ=             -0.3412  XZZ=              0.0000  YZZ=             -0.0000
  YYZ=             -1.3265  XYZ=             -0.0000
 Hexadecapole moment (field-independent basis, Debye-Ang**3):
 XXXX=             -6.6799 YYYY=             -6.0981 ZZZZ=             -7.2267 XXXY=             -0.0000
 XXXZ=             -0.0000 YYYX=             -0.0000 YYYZ=              0.0000 ZZZX=             -0.0000
 ZZZY=              0.0000 XXYY=             -2.4332 XXZZ=             -2.3700 YYZZ=             -1.9062
 XXYZ=              0.0000 YYXZ=              0.0000 ZZXY=             -0.0000
 N-N= 9.225340103408D+00 E-N=-1.991778095987D+02  KE= 7.610626645789D+01
 Symmetry A1   KE= 6.799364329528D+01
 Symmetry A2   KE=-1.945048673707D-20
 Symmetry B1   KE= 4.482712704951D+00
 Symmetry B2   KE= 3.629910457666D+00
  Exact polarizability:       6.099      -0.000       8.279       0.000      -0.000       7.177
 Approx polarizability:       6.035       0.000       9.276       0.000      -0.000       7.870
 Rotating derivatives to standard orientation.
 Full mass-weighted force constant matrix:
 Low frequencies ---  -45.2140  -27.4637    0.0018    0.0020    0.0024    3.5685
 Low frequencies --- 1666.5319 3929.4384 4033.1153
 Diagonal vibrational polarizability:
        0.0000000       0.1029531       0.7333026
 Harmonic frequencies (cm**-1), IR intensities (KM/Mole), Raman scattering
 activities (A**4/AMU), depolarization ratios for plane and unpolarized
 incident light, reduced masses (AMU), force constants (mDyne/A),
 and normal coordinates:
                      1                      2                      3
                     A1                     A1                     B2
 Frequencies --   1666.5319              3929.4384              4033.1152
 Red. masses --      1.0826                 1.0453                 1.0822
 Frc consts  --      1.7715                 9.5091                10.3711
 IR Inten    --     74.1032                 8.7626                62.2283
  Atom  AN      X      Y      Z        X      Y      Z        X      Y      Z
     1   8    -0.00   0.00  -0.07     0.00   0.00   0.05    -0.00  -0.07   0.00
     2   1     0.00   0.43   0.56     0.00   0.58  -0.40     0.00   0.56  -0.43
     3   1     0.00  -0.43   0.56    -0.00  -0.58  -0.40     0.00   0.56   0.43

 -------------------
 - Thermochemistry -
 -------------------
 Temperature   298.150 Kelvin.  Pressure   1.00000 Atm.
 Atom     1 has atomic number  8 and mass  15.99491
 Atom     2 has atomic number  1 and mass   1.00783
 Atom     3 has atomic number  1 and mass   1.00783
 Molecular mass:    18.01056 amu.
 Principal axes and moments of inertia in atomic units:
                           1         2         3
     Eigenvalues --     2.16521   4.11265   6.27786
           X            0.00000   0.00000   1.00000
           Y            1.00000  -0.00000  -0.00000
           Z            0.00000   1.00000  -0.00000
 This molecule is an asymmetric top.
 Rotational symmetry number  2.
 Rotational temperatures (Kelvin)     40.00259    21.06034    13.79672
 Rotational constants (GHZ):         833.51871   438.82633   287.47702
 Zero-point vibrational energy      57594.7 (Joules/Mol)
                                   13.76547 (Kcal/Mol)
 Vibrational temperatures:   2397.77  5653.59  5802.75
          (Kelvin)
 
 Zero-point correction=                           0.021937 (Hartree/Particle)
 Thermal correction to Energy=                    0.024772
 Thermal correction to Enthalpy=                  0.025716
 Thermal correction to Gibbs Free Energy=         0.004317
 Sum of electronic and zero-point Energies=            -76.413837
 Sum of electronic and thermal Energies=               -76.411002
 Sum of electronic and thermal Enthalpies=             -76.410058
 Sum of electronic and thermal Free Energies=          -76.431456
 
                     E (Thermal)             CV                S
                      KCal/Mol        Cal/Mol-Kelvin    Cal/Mol-Kelvin
 Total                   15.544              6.003             45.037
 Electronic               0.000              0.000              0.000
 Translational            0.889              2.981             34.608
 Rotational               0.889              2.981             10.423
 Vibrational             13.767              0.041              0.006
                       Q            Log10(Q)             Ln(Q)
 Total Bot       0.103337D-01         -1.985742         -4.572340
 Total V=0       0.127179D+09          8.104417         18.661110
 Vib (Bot)       0.812794D-10        -10.090020        -23.233129
 Vib (V=0)       0.100032D+01          0.000140          0.000322
 Electronic      0.100000D+01          0.000000          0.000000
 Translational   0.300431D+07          6.477745         14.915559
 Rotational      0.423187D+02          1.626532          3.745229
 ***** Axes restored to original set *****
 -------------------------------------------------------------------
 Center     Atomic                   Forces (Hartrees/Bohr)
 Number     Number              X              Y              Z
 -------------------------------------------------------------------
      1        8           0.000000020    0.000000000    0.000000015
      2        1          -0.000000001    0.000000000   -0.000000019
      3        1          -0.000000018   -0.000000000    0.000000003
 -------------------------------------------------------------------
 Cartesian Forces:  Max     0.000000020 RMS     0.000000012
 B after Tr=    -0.010236    0.000000   -0.008000
         Rot=    1.000000    0.000000    0.000000    0.000000 Ang=   0.00 deg.
 Final structure in terms of initial Z-matrix:
 O
 H,1,r2
 H,1,r3,2,a3
      Variables:
 r2=0.95397725
 r3=0.95397725
 a3=104.81120281

 ----------------------------------------------------------------------

 Electric dipole moment (input orientation):
 (Debye = 10**-18 statcoulomb cm , SI units = C m)
                  (au)            (Debye)         (10**-30 SI)
   Tot        0.779374D+00      0.198097D+01      0.660781D+01
   x          0.614063D+00      0.156079D+01      0.520624D+01
   y          0.000000D+00      0.000000D+00      0.000000D+00
   z          0.479949D+00      0.121991D+01      0.406917D+01

 Dipole polarizability, Alpha (input orientation).
 (esu units = cm**3 , SI units = C**2 m**2 J**-1)
 Alpha(0;0):
               (au)            (10**-24 esu)      (10**-40 SI)
   iso        0.718516D+01      0.106473D+01      0.118467D+01
   aniso      0.188813D+01      0.279792D+00      0.311311D+00
   xx         0.759506D+01      0.112547D+01      0.125226D+01
   yx         0.000000D+00      0.000000D+00      0.000000D+00
   yy         0.609912D+01      0.903796D+00      0.100561D+01
   zx        -0.534797D+00     -0.792487D-01     -0.881760D-01
   zy         0.000000D+00      0.000000D+00      0.000000D+00
   zz         0.786130D+01      0.116492D+01      0.129615D+01

 ----------------------------------------------------------------------

 Dipole orientation:
     8         -0.00000000         -0.00000000          0.01855943
     1         -1.42841223         -0.00000000          1.11836249
     1          1.42841223          0.00000000          1.11836249

 Electric dipole moment (dipole orientation):
 (Debye = 10**-18 statcoulomb cm , SI units = C m)
                  (au)            (Debye)         (10**-30 SI)
   Tot        0.779374D+00      0.198097D+01      0.660781D+01
   x          0.000000D+00      0.000000D+00      0.000000D+00
   y          0.000000D+00      0.000000D+00      0.000000D+00
   z          0.779374D+00      0.198097D+01      0.660781D+01

 Dipole polarizability, Alpha (dipole orientation).
 (esu units = cm**3 , SI units = C**2 m**2 J**-1)
 Alpha(0;0):
               (au)            (10**-24 esu)      (10**-40 SI)
   iso        0.718516D+01      0.106473D+01      0.118467D+01
   aniso      0.188813D+01      0.279792D+00      0.311311D+00
   xx         0.827930D+01      0.122687D+01      0.136507D+01
   yx         0.000000D+00      0.000000D+00      0.000000D+00
   yy         0.609912D+01      0.903796D+00      0.100561D+01
   zx         0.000000D+00      0.000000D+00      0.000000D+00
   zy         0.000000D+00      0.000000D+00      0.000000D+00
   zz         0.717706D+01      0.106353D+01      0.118334D+01

 ----------------------------------------------------------------------
 Unable to Open any file for archive entry.
 1\1\GINC-GADI-CPU-CLX-0989\Freq\RSOGGA11X\Gen\H2O1\PK8622\13-Jul-2020\
 0\\# SOGGA11X/Gen Freq Opt=(VeryTight,CalcAll) Int=UltraFine\\H2O HARM
 ONIC FREQUENCIES\\0,1\O,0.0077380723,0.,0.0060480374\H,0.0008017016,0.
 ,0.9600000748\H,0.9317667273,0.,-0.2311093945\\Version=ES64L-G16RevC.0
 1\State=1-A1\HF=-76.4357736\RMSD=8.758e-09\RMSF=1.213e-08\ZeroPoint=0.
 0219367\Thermal=0.0247717\ETot=-76.4110019\HTot=-76.4100577\GTot=-76.4
 314565\Dipole=0.6140631,0.,0.4799486\DipoleDeriv=-0.4282795,0.,0.07016
 27,0.,-0.7083107,0.,0.0701627,0.,-0.4632093,0.2787753,0.,-0.0579869,0.
 ,0.3541554,0.,-0.0443539,0.,0.1669691,0.1495042,0.,-0.0121757,0.,0.354
 1554,0.,-0.0258088,0.,0.2962402\Polar=7.5950592,0.,6.0991176,-0.534796
 6,0.,7.8613026\PG=C02V [C2(O1),SGV(H2)]\NImag=0\\0.57253995,0.,0.00000
 086,-0.11682416,0.,0.63069974,-0.04670234,0.,-0.03224120,0.05030329,0.
 ,-0.00000043,0.,0.,-0.00001417,0.02979892,0.,-0.55491750,-0.02053739,0
 .,0.56935071,-0.52583760,0.,0.14906537,-0.00360094,0.,-0.00926153,0.52
 943854,0.,-0.00000043,0.,0.,0.00001460,0.,0.,-0.00001417,0.08702524,0.
 ,-0.07578224,0.05277859,0.,-0.01443321,-0.13980383,0.,0.09021545\\-0.0
 0000002,0.,-0.00000002,0.,0.,0.00000002,0.00000002,0.,0.\\\@
 The archive entry for this job was punched.


 Mondays are the potholes in the road of life.
                                -- Tom Wilson
 Job cpu time:       0 days  0 hours  0 minutes 34.4 seconds.
 Elapsed time:       0 days  0 hours  0 minutes 34.2 seconds.
 File lengths (MBytes):  RWF=      6 Int=      0 D2E=      0 Chk=      1 Scr=      1
 Normal termination of Gaussian 16 at Mon Jul 13 11:24:02 2020.
 Link1:  Proceeding to internal job step number  2.
 ---------------------------------------------------------------------
 #N Geom=AllCheck Guess=TCheck SCRF=Check GenChk RSOGGA11X/ChkBas Freq
 ---------------------------------------------------------------------
 1/7=1,10=4,29=7,30=1,38=1,40=1/1,3;
 2/12=2,40=1/2;
 3/5=7,6=2,11=2,14=-4,25=1,30=1,67=1,70=2,71=2,74=-65,75=-5,82=7,116=1,140=1/1,2,3;
 4/5=101/1;
 5/5=2,38=6,98=1/2;
 8/6=4,10=90,11=11/1;
 11/6=1,8=1,9=11,15=111,16=1/1,2,10;
 10/6=1/2;
 6/7=2,8=2,9=2,10=2,28=1/1;
 7/8=1,10=1,25=1/1,2,3,16;
 1/7=1,10=4,30=1/3;
 99//99;
 Structure from the checkpoint file:  "/jobfs/8424109.gadi-pbs/Gau-1579400.chk"
 ------------------------
 H2O HARMONIC FREQUENCIES
 ------------------------
 Charge =  0 Multiplicity = 1
 Redundant internal coordinates found in file.  (old form).
 O,0,0.0077380723,0.,0.0060480374
 H,0,0.0008017016,0.,0.9600000748
 H,0,0.9317667273,0.,-0.2311093945
 Recover connectivity data from disk.

 GradGradGradGradGradGradGradGradGradGradGradGradGradGradGradGradGradGrad
 Berny optimization.
 Initialization pass.
                           ----------------------------
                           !    Initial Parameters    !
                           ! (Angstroms and Degrees)  !
 --------------------------                            --------------------------
 ! Name  Definition              Value          Derivative Info.                !
 --------------------------------------------------------------------------------
 ! R1    R(1,2)                  0.954          calculate D2E/DX2 analytically  !
 ! R2    R(1,3)                  0.954          calculate D2E/DX2 analytically  !
 ! A1    A(2,1,3)              104.8112         calculate D2E/DX2 analytically  !
 --------------------------------------------------------------------------------
 Trust Radius=3.00D-01 FncErr=1.00D-07 GrdErr=1.00D-07 EigMax=2.50D+02 EigMin=1.00D-04
 Number of steps in this run=      2 maximum allowed number of steps=      2.
 GradGradGradGradGradGradGradGradGradGradGradGradGradGradGradGradGradGrad

                          Input orientation:                          
 ---------------------------------------------------------------------
 Center     Atomic      Atomic             Coordinates (Angstroms)
 Number     Number       Type             X           Y           Z
 ---------------------------------------------------------------------
      1          8           0        0.007738   -0.000000    0.006048
      2          1           0        0.000802   -0.000000    0.960000
      3          1           0        0.931767    0.000000   -0.231109
 ---------------------------------------------------------------------
                    Distance matrix (angstroms):
                    1          2          3
     1  O    0.000000
     2  H    0.953977   0.000000
     3  H    0.953977   1.511766   0.000000
 Stoichiometry    H2O
 Framework group  C2V[C2(O),SGV(H2)]
 Deg. of freedom     2
 Full point group                 C2V     NOp   4
 Largest Abelian subgroup         C2V     NOp   4
 Largest concise Abelian subgroup C2      NOp   2
                         Standard orientation:                         
 ---------------------------------------------------------------------
 Center     Atomic      Atomic             Coordinates (Angstroms)
 Number     Number       Type             X           Y           Z
 ---------------------------------------------------------------------
      1          8           0       -0.000000   -0.000000    0.116398
      2          1           0       -0.000000    0.755883   -0.465593
      3          1           0       -0.000000   -0.755883   -0.465593
 ---------------------------------------------------------------------
 Rotational constants (GHZ):         833.5187119         438.8263274         287.4770159
 Basis read from chk: "/jobfs/8424109.gadi-pbs/Gau-1579400.chk" (5D, 7F)
 There are    27 symmetry adapted cartesian basis functions of A1  symmetry.
 There are     7 symmetry adapted cartesian basis functions of A2  symmetry.
 There are    12 symmetry adapted cartesian basis functions of B1  symmetry.
 There are    19 symmetry adapted cartesian basis functions of B2  symmetry.
 There are    23 symmetry adapted basis functions of A1  symmetry.
 There are     7 symmetry adapted basis functions of A2  symmetry.
 There are    11 symmetry adapted basis functions of B1  symmetry.
 There are    17 symmetry adapted basis functions of B2  symmetry.
    58 basis functions,    91 primitive gaussians,    65 cartesian basis functions
     5 alpha electrons        5 beta electrons
       nuclear repulsion energy         9.2253401034 Hartrees.
 NAtoms=    3 NActive=    3 NUniq=    2 SFac= 2.25D+00 NAtFMM=   60 NAOKFM=F Big=F
 Integral buffers will be    131072 words long.
 Raffenetti 2 integral format.
 Two-electron integral symmetry is turned on.
 One-electron integrals computed using PRISM.
 NBasis=    58 RedAO= T EigKep=  4.11D-03  NBF=    23     7    11    17
 NBsUse=    58 1.00D-06 EigRej= -1.00D+00 NBFU=    23     7    11    17
 Initial guess from the checkpoint file:  "/jobfs/8424109.gadi-pbs/Gau-1579400.chk"
 B after Tr=     0.000000    0.000000   -0.000000
         Rot=    1.000000   -0.000000    0.000000   -0.000000 Ang=   0.00 deg.
 Initial guess orbital symmetries:
       Occupied  (A1) (A1) (B2) (A1) (B1)
       Virtual   (A1) (B2) (B2) (A1) (A1) (B1) (B2) (A1) (A2) (A1)
                 (B1) (B2) (B2) (A1) (A1) (B2) (B1) (A2) (A1) (A1)
                 (B2) (B1) (A1) (B1) (B2) (A1) (A2) (B2) (B1) (B2)
                 (A1) (A2) (A1) (B2) (B1) (A2) (A1) (B2) (B2) (A1)
                 (B1) (A1) (B1) (B2) (A2) (B1) (A1) (A2) (A1) (A1)
                 (B2) (B2) (A1)
 Keep R1 ints in memory in symmetry-blocked form, NReq=3432820.
 Requested convergence on RMS density matrix=1.00D-08 within 128 cycles.
 Requested convergence on MAX density matrix=1.00D-06.
 Requested convergence on             energy=1.00D-06.
 No special actions if energy rises.
 SCF Done:  E(RSOGGA11X) =  -76.4357735950     A.U. after    1 cycles
            NFock=  1  Conv=0.13D-08     -V/T= 2.0043
 DoSCS=F DFT=T ScalE2(SS,OS)=  1.000000  1.000000
 Range of M.O.s used for correlation:     1    58
 NBasis=    58 NAE=     5 NBE=     5 NFC=     0 NFV=     0
 NROrb=     58 NOA=     5 NOB=     5 NVA=    53 NVB=    53
 Symmetrizing basis deriv contribution to polar:
 IMax=3 JMax=2 DiffMx= 0.00D+00
 G2DrvN: will do     4 centers at a time, making    1 passes.
 Calling FoFCou, ICntrl=  3107 FMM=F I1Cent=   0 AccDes= 0.00D+00.
 End of G2Drv F.D. properties file   721 does not exist.
 End of G2Drv F.D. properties file   722 does not exist.
 End of G2Drv F.D. properties file   788 does not exist.
          IDoAtm=111
          Differentiating once with respect to electric field.
                with respect to dipole field.
          Differentiating once with respect to nuclear coordinates.
 Keep R1 ints in memory in symmetry-blocked form, NReq=3434326.
          There are     9 degrees of freedom in the 1st order CPHF.  IDoFFX=4 NUNeed=     9.
      9 vectors produced by pass  0 Test12= 2.94D-15 1.11D-08 XBig12= 2.82D+00 1.04D+00.
 AX will form     9 AO Fock derivatives at one time.
      9 vectors produced by pass  1 Test12= 2.94D-15 1.11D-08 XBig12= 3.48D-01 2.79D-01.
      9 vectors produced by pass  2 Test12= 2.94D-15 1.11D-08 XBig12= 6.67D-03 3.20D-02.
      9 vectors produced by pass  3 Test12= 2.94D-15 1.11D-08 XBig12= 3.11D-05 2.65D-03.
      9 vectors produced by pass  4 Test12= 2.94D-15 1.11D-08 XBig12= 1.31D-07 1.22D-04.
      8 vectors produced by pass  5 Test12= 2.94D-15 1.11D-08 XBig12= 1.82D-10 4.64D-06.
      3 vectors produced by pass  6 Test12= 2.94D-15 1.11D-08 XBig12= 1.32D-13 1.12D-07.
 InvSVY:  IOpt=1 It=  1 EMax= 2.22D-16
 Solved reduced A of dimension    56 with     9 vectors.
 Isotropic polarizability for W=    0.000000        7.19 Bohr**3.
 End of Minotr F.D. properties file   721 does not exist.
 End of Minotr F.D. properties file   722 does not exist.
 End of Minotr F.D. properties file   788 does not exist.

 **********************************************************************

            Population analysis using the SCF Density.

 **********************************************************************

 Orbital symmetries:
       Occupied  (A1) (A1) (B2) (A1) (B1)
       Virtual   (A1) (B2) (B2) (A1) (A1) (B1) (B2) (A1) (A2) (A1)
                 (B1) (B2) (B2) (A1) (A1) (B2) (B1) (A2) (A1) (A1)
                 (B2) (B1) (A1) (B1) (B2) (A1) (A2) (B2) (B1) (B2)
                 (A1) (A2) (A1) (B2) (B1) (A2) (A1) (B2) (B2) (A1)
                 (B1) (A1) (B1) (B2) (A2) (B1) (A1) (A2) (A1) (A1)
                 (B2) (B2) (A1)
 The electronic state is 1-A1.
 Alpha  occ. eigenvalues --  -19.50256  -1.12182  -0.59283  -0.45108  -0.37385
 Alpha virt. eigenvalues --    0.03504   0.08507   0.31487   0.32385   0.37797
 Alpha virt. eigenvalues --    0.38371   0.49111   0.71048   0.80134   0.83083
 Alpha virt. eigenvalues --    0.90657   1.08453   1.21717   1.26982   1.49178
 Alpha virt. eigenvalues --    1.51870   1.82225   1.88514   1.92583   2.13058
 Alpha virt. eigenvalues --    2.18043   2.38561   2.99652   3.43805   3.47733
 Alpha virt. eigenvalues --    3.57976   3.64354   3.78459   3.86412   3.94195
 Alpha virt. eigenvalues --    4.08143   4.12494   4.35722   4.45149   4.54206
 Alpha virt. eigenvalues --    4.57949   4.72233   4.90774   4.98044   5.01197
 Alpha virt. eigenvalues --    5.05520   5.71228   6.03635   6.08238   6.25044
 Alpha virt. eigenvalues --    6.33268   6.39773   6.42267   6.45238   6.96813
 Alpha virt. eigenvalues --    7.06059   7.53426  15.18905
          Condensed to atoms (all electrons):
               1          2          3
     1  O    7.710004   0.362677   0.362677
     2  H    0.362677   0.442534  -0.022891
     3  H    0.362677  -0.022891   0.442534
 Mulliken charges:
               1
     1  O   -0.435359
     2  H    0.217679
     3  H    0.217679
 Sum of Mulliken charges =   0.00000
 Mulliken charges with hydrogens summed into heavy atoms:
               1
     1  O    0.000000
 APT charges:
               1
     1  O   -0.533266
     2  H    0.266633
     3  H    0.266633
 Sum of APT charges =   0.00000
 APT charges with hydrogens summed into heavy atoms:
               1
     1  O    0.000000
 Electronic spatial extent (au):  <R**2>=             19.5826
 Charge=              0.0000 electrons
 Dipole moment (field-independent basis, Debye):
    X=             -0.0000    Y=              0.0000    Z=             -1.9810  Tot=              1.9810
 Quadrupole moment (field-independent basis, Debye-Ang):
   XX=             -7.5713   YY=             -4.3534   ZZ=             -6.3227
   XY=              0.0000   XZ=              0.0000   YZ=             -0.0000
 Traceless Quadrupole moment (field-independent basis, Debye-Ang):
   XX=             -1.4888   YY=              1.7291   ZZ=             -0.2402
   XY=              0.0000   XZ=              0.0000   YZ=             -0.0000
 Octapole moment (field-independent basis, Debye-Ang**2):
  XXX=              0.0000  YYY=              0.0000  ZZZ=             -1.2779  XYY=             -0.0000
  XXY=             -0.0000  XXZ=             -0.3412  XZZ=              0.0000  YZZ=              0.0000
  YYZ=             -1.3265  XYZ=             -0.0000
 Hexadecapole moment (field-independent basis, Debye-Ang**3):
 XXXX=             -6.6799 YYYY=             -6.0981 ZZZZ=             -7.2267 XXXY=             -0.0000
 XXXZ=             -0.0000 YYYX=             -0.0000 YYYZ=             -0.0000 ZZZX=             -0.0000
 ZZZY=              0.0000 XXYY=             -2.4332 XXZZ=             -2.3700 YYZZ=             -1.9062
 XXYZ=              0.0000 YYXZ=              0.0000 ZZXY=             -0.0000
 N-N= 9.225340103408D+00 E-N=-1.991778104997D+02  KE= 7.610626692423D+01
 Symmetry A1   KE= 6.799364354503D+01
 Symmetry A2   KE= 8.111686532185D-22
 Symmetry B1   KE= 4.482712880428D+00
 Symmetry B2   KE= 3.629910498770D+00
  Exact polarizability:       6.099      -0.000       8.279       0.000       0.000       7.177
 Approx polarizability:       6.035       0.000       9.276       0.000       0.000       7.870
 Calling FoFJK, ICntrl=    100127 FMM=F ISym2X=1 I1Cent= 0 IOpClX= 0 NMat=1 NMatS=1 NMatT=0.
 Full mass-weighted force constant matrix:
 Low frequencies ---  -45.2133  -27.4598    0.0010    0.0014    0.0023    3.5945
 Low frequencies --- 1666.5318 3929.4385 4033.1155
 Diagonal vibrational polarizability:
        0.0000000       0.1029531       0.7333025
 Harmonic frequencies (cm**-1), IR intensities (KM/Mole), Raman scattering
 activities (A**4/AMU), depolarization ratios for plane and unpolarized
 incident light, reduced masses (AMU), force constants (mDyne/A),
 and normal coordinates:
                      1                      2                      3
                     A1                     A1                     B2
 Frequencies --   1666.5318              3929.4385              4033.1154
 Red. masses --      1.0826                 1.0453                 1.0822
 Frc consts  --      1.7715                 9.5091                10.3711
 IR Inten    --     74.1032                 8.7626                62.2282
  Atom  AN      X      Y      Z        X      Y      Z        X      Y      Z
     1   8    -0.00   0.00  -0.07     0.00  -0.00   0.05    -0.00  -0.07  -0.00
     2   1     0.00   0.43   0.56     0.00   0.58  -0.40    -0.00   0.56  -0.43
     3   1     0.00  -0.43   0.56    -0.00  -0.58  -0.40     0.00   0.56   0.43

 -------------------
 - Thermochemistry -
 -------------------
 Temperature   298.150 Kelvin.  Pressure   1.00000 Atm.
 Atom     1 has atomic number  8 and mass  15.99491
 Atom     2 has atomic number  1 and mass   1.00783
 Atom     3 has atomic number  1 and mass   1.00783
 Molecular mass:    18.01056 amu.
 Principal axes and moments of inertia in atomic units:
                           1         2         3
     Eigenvalues --     2.16521   4.11265   6.27786
           X            0.00000   0.00000   1.00000
           Y            1.00000   0.00000  -0.00000
           Z           -0.00000   1.00000  -0.00000
 This molecule is an asymmetric top.
 Rotational symmetry number  2.
 Rotational temperatures (Kelvin)     40.00259    21.06034    13.79672
 Rotational constants (GHZ):         833.51871   438.82633   287.47702
 Zero-point vibrational energy      57594.7 (Joules/Mol)
                                   13.76547 (Kcal/Mol)
 Vibrational temperatures:   2397.77  5653.59  5802.75
          (Kelvin)
 
 Zero-point correction=                           0.021937 (Hartree/Particle)
 Thermal correction to Energy=                    0.024772
 Thermal correction to Enthalpy=                  0.025716
 Thermal correction to Gibbs Free Energy=         0.004317
 Sum of electronic and zero-point Energies=            -76.413837
 Sum of electronic and thermal Energies=               -76.411002
 Sum of electronic and thermal Enthalpies=             -76.410058
 Sum of electronic and thermal Free Energies=          -76.431456
 
                     E (Thermal)             CV                S
                      KCal/Mol        Cal/Mol-Kelvin    Cal/Mol-Kelvin
 Total                   15.544              6.003             45.037
 Electronic               0.000              0.000              0.000
 Translational            0.889              2.981             34.608
 Rotational               0.889              2.981             10.423
 Vibrational             13.767              0.041              0.006
                       Q            Log10(Q)             Ln(Q)
 Total Bot       0.103337D-01         -1.985742         -4.572341
 Total V=0       0.127179D+09          8.104417         18.661110
 Vib (Bot)       0.812794D-10        -10.090020        -23.233129
 Vib (V=0)       0.100032D+01          0.000140          0.000322
 Electronic      0.100000D+01          0.000000          0.000000
 Translational   0.300431D+07          6.477745         14.915559
 Rotational      0.423187D+02          1.626532          3.745229
 ***** Axes restored to original set *****
 -------------------------------------------------------------------
 Center     Atomic                   Forces (Hartrees/Bohr)
 Number     Number              X              Y              Z
 -------------------------------------------------------------------
      1        8          -0.000000009    0.000000000   -0.000000007
      2        1          -0.000000003    0.000000000    0.000000013
      3        1           0.000000012   -0.000000000   -0.000000006
 -------------------------------------------------------------------
 Cartesian Forces:  Max     0.000000013 RMS     0.000000007
 FormGI is forming the generalized inverse of G from B-inverse, IUseBI=4.

 GradGradGradGradGradGradGradGradGradGradGradGradGradGradGradGradGradGrad
 Berny optimization.
 Internal  Forces:  Max     0.000000013 RMS     0.000000011
 Search for a local minimum.
 Step number   1 out of a maximum of    2
 All quantities printed in internal units (Hartrees-Bohrs-Radians)
 Second derivative matrix not updated -- analytic derivatives used.
 The second derivative matrix:
                          R1        R2        A1
           R1           0.56966
           R2          -0.00530   0.56966
           A1           0.03011   0.03011   0.16272
 ITU=  0
     Eigenvalues ---    0.15826   0.56883   0.57497
 Angle between quadratic step and forces=  90.00 degrees.
 Linear search not attempted -- first point.
 Iteration  1 RMS(Cart)=  0.00000003 RMS(Int)=  0.00000000
 ClnCor:  largest displacement from symmetrization is 6.67D-16 for atom     2.
 Variable       Old X    -DE/DX   Delta X   Delta X   Delta X     New X
                                 (Linear)    (Quad)   (Total)
    R1        1.80276   0.00000   0.00000   0.00000   0.00000   1.80276
    R2        1.80276   0.00000   0.00000   0.00000   0.00000   1.80276
    A1        1.82930   0.00000   0.00000   0.00000   0.00000   1.82930
         Item               Value     Threshold  Converged?
 Maximum Force            0.000000     0.000002     YES
 RMS     Force            0.000000     0.000001     YES
 Maximum Displacement     0.000000     0.000006     YES
 RMS     Displacement     0.000000     0.000004     YES
 Predicted change in Energy=-3.639947D-16
 Optimization completed.
    -- Stationary point found.
                           ----------------------------
                           !   Optimized Parameters   !
                           ! (Angstroms and Degrees)  !
 --------------------------                            --------------------------
 ! Name  Definition              Value          Derivative Info.                !
 --------------------------------------------------------------------------------
 ! R1    R(1,2)                  0.954          -DE/DX =    0.0                 !
 ! R2    R(1,3)                  0.954          -DE/DX =    0.0                 !
 ! A1    A(2,1,3)              104.8112         -DE/DX =    0.0                 !
 --------------------------------------------------------------------------------
 GradGradGradGradGradGradGradGradGradGradGradGradGradGradGradGradGradGrad


 ----------------------------------------------------------------------

 Electric dipole moment (input orientation):
 (Debye = 10**-18 statcoulomb cm , SI units = C m)
                  (au)            (Debye)         (10**-30 SI)
   Tot        0.779374D+00      0.198097D+01      0.660781D+01
   x          0.614063D+00      0.156079D+01      0.520624D+01
   y          0.000000D+00      0.000000D+00      0.000000D+00
   z          0.479949D+00      0.121991D+01      0.406917D+01

 Dipole polarizability, Alpha (input orientation).
 (esu units = cm**3 , SI units = C**2 m**2 J**-1)
 Alpha(0;0):
               (au)            (10**-24 esu)      (10**-40 SI)
   iso        0.718516D+01      0.106473D+01      0.118467D+01
   aniso      0.188813D+01      0.279792D+00      0.311311D+00
   xx         0.759506D+01      0.112547D+01      0.125226D+01
   yx         0.000000D+00      0.000000D+00      0.000000D+00
   yy         0.609912D+01      0.903796D+00      0.100561D+01
   zx        -0.534797D+00     -0.792487D-01     -0.881761D-01
   zy         0.000000D+00      0.000000D+00      0.000000D+00
   zz         0.786130D+01      0.116492D+01      0.129615D+01

 ----------------------------------------------------------------------

 Dipole orientation:
     8         -0.00000000         -0.00000000          0.01855943
     1         -1.42841223         -0.00000000          1.11836249
     1          1.42841223          0.00000000          1.11836249

 Electric dipole moment (dipole orientation):
 (Debye = 10**-18 statcoulomb cm , SI units = C m)
                  (au)            (Debye)         (10**-30 SI)
   Tot        0.779374D+00      0.198097D+01      0.660781D+01
   x          0.000000D+00      0.000000D+00      0.000000D+00
   y          0.000000D+00      0.000000D+00      0.000000D+00
   z          0.779374D+00      0.198097D+01      0.660781D+01

 Dipole polarizability, Alpha (dipole orientation).
 (esu units = cm**3 , SI units = C**2 m**2 J**-1)
 Alpha(0;0):
               (au)            (10**-24 esu)      (10**-40 SI)
   iso        0.718516D+01      0.106473D+01      0.118467D+01
   aniso      0.188813D+01      0.279792D+00      0.311311D+00
   xx         0.827930D+01      0.122687D+01      0.136507D+01
   yx         0.000000D+00      0.000000D+00      0.000000D+00
   yy         0.609912D+01      0.903796D+00      0.100561D+01
   zx         0.000000D+00      0.000000D+00      0.000000D+00
   zy         0.000000D+00      0.000000D+00      0.000000D+00
   zz         0.717706D+01      0.106353D+01      0.118334D+01

 ----------------------------------------------------------------------
 Unable to Open any file for archive entry.
 1\1\GINC-GADI-CPU-CLX-0989\Freq\RSOGGA11X\Gen\H2O1\PK8622\13-Jul-2020\
 0\\#N Geom=AllCheck Guess=TCheck SCRF=Check GenChk RSOGGA11X/ChkBas Fr
 eq\\H2O HARMONIC FREQUENCIES\\0,1\O,0.0077380723,0.,0.0060480374\H,0.0
 008017016,0.,0.9600000748\H,0.9317667273,0.,-0.2311093945\\Version=ES6
 4L-G16RevC.01\State=1-A1\HF=-76.4357736\RMSD=1.349e-09\RMSF=7.469e-09\
 ZeroPoint=0.0219367\Thermal=0.0247717\ETot=-76.4110019\HTot=-76.410057
 7\GTot=-76.4314565\Dipole=0.6140631,0.,0.4799485\DipoleDeriv=-0.428279
 4,0.,0.0701627,0.,-0.7083103,0.,0.0701627,0.,-0.4632092,0.2787752,0.,-
 0.0579869,0.,0.3541552,0.,-0.0443539,0.,0.1669691,0.1495042,0.,-0.0121
 758,0.,0.3541552,0.,-0.0258087,0.,0.2962401\Polar=7.595059,0.,6.099116
 9,-0.5347967,0.,7.8613024\Quadrupole=0.3766243,-1.1069084,0.7302841,0.
 ,-0.7103879,0.\PG=C02V [C2(O1),SGV(H2)]\NImag=0\\0.57253998,0.,0.00000
 088,-0.11682421,0.,0.63069980,-0.04670234,0.,-0.03224118,0.05030328,0.
 ,-0.00000044,0.,0.,-0.00001416,0.02979894,0.,-0.55491755,-0.02053740,0
 .,0.56935075,-0.52583764,0.,0.14906539,-0.00360094,0.,-0.00926154,0.52
 943857,0.,-0.00000044,0.,0.,0.00001460,0.,0.,-0.00001416,0.08702528,0.
 ,-0.07578225,0.05277858,0.,-0.01443321,-0.13980385,0.,0.09021546\\0.,0
 .,0.,0.,0.,-0.00000001,-0.00000001,0.,0.\\\@
 The archive entry for this job was punched.


 BETTER TO HUNT IN FIELDS, FOR HEALTH UNBOUGHT
 THAN FEE THE DOCTOR FOR A NAUSEOUS DRAUGHT.
 THE WISE, FOR CURE, ON EXERCISE DEPEND;
 GOD NEVER MADE HIS WORK FOR MAN TO MEND.
     -- JOHN DRYDEN (1631-1700)
 Job cpu time:       0 days  0 hours  0 minutes  8.2 seconds.
 Elapsed time:       0 days  0 hours  0 minutes  8.1 seconds.
 File lengths (MBytes):  RWF=      6 Int=      0 D2E=      0 Chk=      1 Scr=      1
 Normal termination of Gaussian 16 at Mon Jul 13 11:24:10 2020.
