
 Primary working directories    : /jobfs/7789094.gadi-pbs/molpro.k7GSllHcVL
 Secondary working directories  : /jobfs/7789094.gadi-pbs/molpro.k7GSllHcVL
 Wavefunction directory         : /home/561/pk8622/wfu/
 Main file repository           : /jobfs/7789094.gadi-pbs/molpro.k7GSllHcVL/

 id        : anu

 Nodes                            nprocs
 gadi-cpu-clx-0861.gadi.nci.org.au    4

 Using customized tuning parameters: mindgm=1; mindgv=20; mindgc=4; mindgr=1; noblas=0; minvec=7
 default implementation of scratch files=df  


 Variables initialized (934), CPU time= 0.00 sec
 ***,Geom opt + VSCF for ammonia
 
 memory,40,m
 basis=def2-TZVP
 
 orient,mass
 geomtyp=xyz
 geometry={
 4
 N         -0.31060        1.49398        0.00912
 H          0.70673        1.43731       -0.00479
 H         -0.62220        0.78704        0.67357
 H         -0.62220        1.17497       -0.90712
 }
 mass,iso
 
 ks,M06
 optg
 
 frequencies,symm=auto
 
 label1
 {ks,M06
 start,atden}
 
 {surf,start1D=label1,sym=auto
  intensity,dipole=2}
 
 poly
 vscf,combi=1,pot=poly
 Commands  initialized (763), CPU time= 0.00 sec, 617 directives.
 Default parameters read. Elapsed time= 0.12 sec

 Checking input...
 Passed
1


                                         ***  PROGRAM SYSTEM MOLPRO  ***
                                       Copyright, TTI GmbH Stuttgart, 2015
                                    Version 2019.2 linked Nov 21 2019 12:21:21


 **********************************************************************************************************************************
 LABEL *   Geom opt + VSCF for ammonia                                                   
  64 bit mppx version                                                                    DATE: 24-Jun-20          TIME: 22:24:48  
 **********************************************************************************************************************************

 SHA1:             8dbd9ae1082e4ce945b0f27595c9eb2d4aa09004
 **********************************************************************************************************************************

 Variable memory set to   40000000 words,  buffer space 

 SETTING BASIS          =    DEF2-TZVP
 SETTING GEOMTYP        =    XYZ
 ZCENTRE=MASS
 


 Using masses of most abundant isotopes

 **********************************************************************************************************************************


 Recomputing integrals since basis changed


 Using spherical harmonics

 Library entry N      S def2-TZVP            selected for orbital group  1
 Library entry N      P def2-TZVP            selected for orbital group  1
 Library entry N      D def2-TZVP            selected for orbital group  1
 Library entry N      F def2-TZVP            selected for orbital group  1
 Library entry H      S def2-TZVP            selected for orbital group  2
 Library entry H      P def2-TZVP            selected for orbital group  2


 PROGRAM * SEWARD (Integral evaluation for generally contracted gaussian basis sets)     Author: Roland Lindh, 1990

 Geometry written to block  1 of record 700

 Orientation using atomic masses  
 Molecule type: Asymmetric top
 Rotational constants:     189.2944058    293.6279763    293.6287861 GHz

 Point group  C1  



 ATOMIC COORDINATES

 NR  ATOM    CHARGE       X              Y              Z

   1  N       7.00    0.132254728    0.000000688   -0.000001401
   2  H       1.00   -0.612525876    0.181405672    1.766482085
   3  H       1.00   -0.612536370    1.439102408   -1.040336272
   4  H       1.00   -0.612530802   -1.620517639   -0.726126353

 Bond lengths in Bohr (Angstrom)

 1-2  1.925634914  1-3  1.925623064  1-4  1.925627840
     ( 1.019002113)     ( 1.018995842)     ( 1.018998370)

 Bond angles

  2-1-3  105.99826252   2-1-4  105.99802633   3-1-4  105.99831947

 NUCLEAR CHARGE:                   10
 NUMBER OF PRIMITIVE AOS:          75
 NUMBER OF SYMMETRY AOS:           70
 NUMBER OF CONTRACTIONS:           49   (   49A   )
 NUMBER OF CORE ORBITALS:           1   (    1A   )
 NUMBER OF VALENCE ORBITALS:        7   (    7A   )


 NUCLEAR REPULSION ENERGY   11.88091287


 Eigenvalues of metric

         1 0.505E-02 0.104E-01 0.108E-01 0.108E-01 0.431E-01 0.431E-01 0.853E-01 0.113E+00


 Contracted 2-electron integrals neglected if value below      1.0D-11
 AO integral compression algorithm  1   Integral accuracy      1.0D-11

     3.932 MB (compressed) written to integral file ( 55.9%)


 NUMBER OF SORTED TWO-ELECTRON INTEGRALS:     750925.     BUFFER LENGTH:  32768
 NUMBER OF SEGMENTS:   1  SEGMENT LENGTH:     750925      RECORD LENGTH: 524288

 Memory used in sort:       1.31 MW

 SORT1 READ      903463. AND WROTE      640265. INTEGRALS IN      2 RECORDS. CPU TIME:     0.02 SEC, REAL TIME:     0.02 SEC
 SORT2 READ      640265. AND WROTE      750925. INTEGRALS IN     15 RECORDS. CPU TIME:     0.05 SEC, REAL TIME:     0.06 SEC

 FILE SIZES:   FILE 1:    34.0 MBYTE,  FILE 4:     8.4 MBYTE,   TOTAL:     42.4 MBYTE

 OPERATOR DM      FOR CENTER  0  COORDINATES:    0.000000    0.000000    0.000000


 **********************************************************************************************************************************
 DATASETS  * FILE   NREC   LENGTH (MB)   RECORD NAMES
              1      19       33.22       500      610      700      900      950      970     1000      129      960     1100   
                                          VAR    BASINP    GEOM    SYMINP    ZMAT    AOBASIS   BASIS     P2S    ABASIS      S 
                                         1400     1410     1200     1210     1080     1600     1650     1300     1700   
                                           T        V       H0       H01     AOSYM     SMH    MOLCAS    ERIS     OPER   

 PROGRAMS   *        TOTAL       INT
 CPU TIMES  *         1.11      0.46
 REAL TIME  *         1.54 SEC
 DISK USED  *        42.77 MB
 **********************************************************************************************************************************

 Density functional group M06=XC-M06
 Functional: XC-M06(via MFM 1.6)                                               Gradient terms: 1
 Use libxcgrid:  F
 Use grid at  1800.2
 

 Exact exchange will be calculated, factor:  0.2700

 Functional: XC-M06                    Factor:  1.0000
 
 Generated new metagrid on record  1800.2 with target accuracy 1.0D-06 and 12470 points in CPU time    0.1
 Computed new grid on record 1800.1 in CPU time    0.1
   42775 words reserved for DFT integration

 PROGRAM * RKS-SCF (Restricted closed shell Kohn-Sham)     Authors: W. Meyer, H.-J. Werner, P.J. Knowles, 1993

 NUMBER OF ELECTRONS:       5+    5-    SPACE SYMMETRY=1    SPIN SYMMETRY: Singlet 
 CONVERGENCE THRESHOLDS:    1.00E-06 (Density)    1.00E-06 (Energy)
 MAX. NUMBER OF ITERATIONS:       60
 INTERPOLATION TYPE:            DIIS
 INTERPOLATION STEPS:              2 (START)      1 (STEP)
 LEVEL SHIFTS:                  0.00 (CLOSED)  0.00 (OPEN) 



 Use fine grid record 1800.2 for energy threshold  1.0D-06
 Orbital guess generated from atomic densities. Full valence occupancy:    5

 Molecular orbital dump at record        2100.2

 Initial occupancy:   5

 ITERATION    DDIFF          GRAD             ENERGY        2-EL.EN.            DIPOLE MOMENTS         DIIS   ORB.
    1      0.000D+00      0.000D+00       -56.46704730     78.062141   -0.99689   -0.00004    0.00001    0    start
    2      0.000D+00      0.196D-01       -56.40358764     69.186622   -0.25404    0.00292    0.00222    1    diag
    3      0.192D-01      0.270D-01       -56.54061674     74.320506   -0.67505    0.00120    0.00045    2    diag
    4      0.118D-01      0.628D-03       -56.54069114     74.240615   -0.68303    0.00112    0.00070    3    diag
    5      0.753D-03      0.211D-03       -56.54069714     74.259407   -0.68105    0.00114    0.00068    4    diag
    6      0.178D-03      0.517D-04       -56.54069761     74.264142   -0.68255    0.00113    0.00069    5    diag
    7      0.261D-04      0.311D-05       -56.54069761     74.264392   -0.68250    0.00113    0.00069    6    diag
    8      0.381D-05      0.333D-06       -56.54069761     74.264446   -0.68250    0.00113    0.00069    7    diag
    9      0.437D-06      0.301D-07       -56.54069761     74.264436   -0.68250    0.00113    0.00069    0    orth

 Final occupancy:   5

 !RKS STATE  1.1 Energy               -56.540697614112
 Nuclear energy                        11.88091287
 One-electron energy                  -99.63125674
 Two-electron energy                   37.13221810
 SCF exchange energy                   -7.65995326     Factor= 0.2700
 Density functional                    -5.92257185     XC-M06=-5.92257185
 Virial quotient                       -1.00431509
 !RKS STATE  1.1 Dipole moment         -0.68249849     0.00112668     0.00068735
 Dipole moment /Debye                  -1.73462451     0.00286353     0.00174696

 Orbital energies:

         1.1          2.1          3.1          4.1          5.1          6.1          7.1
    -14.361499    -0.865142    -0.467226    -0.466644    -0.282090     0.024089     0.094030


 HOMO      5.1    -0.282090 =      -7.6761eV
 LUMO      6.1     0.024089 =       0.6555eV
 LUMO-HOMO         0.306179 =       8.3316eV


 **********************************************************************************************************************************
 DATASETS  * FILE   NREC   LENGTH (MB)   RECORD NAMES
              1      20       33.62       500      610      700      900      950      970     1000      129      960     1100   
                                          VAR    BASINP    GEOM    SYMINP    ZMAT    AOBASIS   BASIS     P2S    ABASIS      S 
                                         1400     1410     1200     1210     1080     1600     1650     1300     1700     1800   
                                           T        V       H0       H01     AOSYM     SMH    MOLCAS    ERIS     OPER     GRID   

              2       5        2.85       700     1000      520     1800     2100   
                                         GEOM     BASIS   MCVARS    GRID      RKS  

 PROGRAMS   *        TOTAL    KS-SCF       INT
 CPU TIMES  *         2.14      1.02      0.46
 REAL TIME  *         2.61 SEC
 DISK USED  *        42.77 MB
 **********************************************************************************************************************************


 PROGRAM * OPT (Geometry optimization)     Authors: F. Eckert and H.-J. Werner


 BFGS update of hessian

 *** Long output written to logfile /scratch/on41/pk8622/Test_Calcs/Molpro/VSCF/ammonia_vscf.log ***


 Geometry optimization using default procedure for command KS-SCF

 Geometry written to block  1 of record 700

 Making model hessian for cartesian coordinates

 Entering Rational Function Geometry Optimization

 ITER.   ENERGY(OLD)    ENERGY(NEW)      DE          GRADMAX     GRADNORM    GRADRMS     STEPMAX     STEPLEN     STEPRMS   CPU-time
   1   -56.54069761   -56.54077148    -0.00007387  0.01196956  0.01204630  0.00200772  0.01300072  0.01563029  0.00781514      2.97
   2   -56.54077148   -56.51706775     0.02370373  0.00503110  0.00537969  0.00089661  0.22445732  0.30000000  0.15000000      6.06
   3   -56.51706775   -56.53772616    -0.02065841  0.18817589  0.20198181  0.03366364  0.12621066  0.18076720  0.09038360      9.11
   4   -56.53772616   -56.53512073     0.00260543  0.05698678  0.06270786  0.01045131  0.22338447  0.30000000  0.15000000     12.20
   5   -56.53512073   -56.54049872    -0.00537799  0.06840703  0.07069907  0.01178318  0.15488773  0.21997644  0.10998822     15.24
   6   -56.54049872   -56.54075376    -0.00025504  0.01662305  0.01830630  0.00305105  0.03554347  0.04970085  0.02485043     18.25
   7   -56.54075376   -56.54031817     0.00043560  0.00267721  0.00335587  0.00055931  0.03668830  0.04562964  0.02281482     21.24
   8   -56.54031817   -56.53939970     0.00091847  0.02160854  0.02328440  0.00388073  0.09836540  0.11944667  0.05972334     24.27
   9   -56.53939970   -56.52250773     0.01689196  0.03087268  0.04347258  0.00724543  0.28821578  0.30000000  0.15000000     27.35
  10   -56.52250773   -56.54033256    -0.01782483  0.12057214  0.12231655  0.02038609  0.27886073  0.30000000  0.15000000     30.43
  11   -56.54033256   -56.54077423    -0.00044167  0.02875908  0.03157474  0.00526246  0.02286051  0.03254425  0.01627212     33.50
  12   -56.54077423   -56.54044564     0.00032860  0.00843811  0.01043406  0.00173901  0.02707394  0.04278121  0.02139061     36.56
  13   -56.54044564   -56.52294539     0.01750025  0.01830111  0.01902836  0.00317139  0.22025381  0.30000000  0.15000000     39.59
  14   -56.52294539   -56.53947834    -0.01653295  0.15984490  0.16974318  0.02829053  0.23969611  0.30000000  0.15000000     42.71
  15   -56.53947834   -56.54075578    -0.00127744  0.03705514  0.03748450  0.00624742  0.05392128  0.05769672  0.02884836     45.72
  16   -56.54075578   -56.52160576     0.01915002  0.00785880  0.00820592  0.00136765  0.28201813  0.30000000  0.15000000     48.76
  17   -56.52160576   -56.53292787    -0.01132211  0.14993219  0.16552232  0.02758705  0.21830656  0.29564652  0.14782326     51.83
  18   -56.53292787   -56.53249734     0.00043052  0.04454884  0.05924738  0.00987456  0.25380121  0.30000000  0.15000000     54.84
  19   -56.53249734   -56.53367529    -0.00117794  0.03337805  0.04241560  0.00706927  0.25381942  0.30000000  0.15000000     57.90
  20   -56.53367529   -56.52475189     0.00892340  0.03735519  0.04465612  0.00744269  0.28490139  0.30000000  0.15000000     60.88
  21   -56.52475189   -56.53646375    -0.01171186  0.09154217  0.09246551  0.01541092  0.29633779  0.30000000  0.15000000     63.91
  22   -56.53646375   -56.52397187     0.01249188  0.02530294  0.03833371  0.00638895  0.29170137  0.30000000  0.15000000     66.88
  23   -56.52397187   -56.53673918    -0.01276731  0.09793731  0.10065460  0.01677577  0.23425976  0.30000000  0.15000000     69.86
  24   -56.53673918   -56.53691150    -0.00017233  0.05668270  0.06094948  0.01015825  0.21742930  0.24891469  0.12445734     72.90
  25   -56.53691150   -56.54053130    -0.00361980  0.05687238  0.05912982  0.00985497  0.10754723  0.14775040  0.07387520     75.86
  26   -56.54053130   -56.54076654    -0.00023524  0.00562345  0.01012439  0.00168740  0.04236221  0.04428228  0.02214114     78.86
  27   -56.54076654   -56.52919563     0.01157091  0.00136108  0.00222862  0.00037144  0.24386757  0.30000000  0.15000000     82.04
  28   -56.52919563   -56.53711156    -0.00791593  0.11443371  0.13246381  0.02207730  0.10046245  0.13698010  0.06849005     85.14
  29   -56.53711156   -56.52663771     0.01047385  0.05009091  0.06886426  0.01147738  0.24348176  0.30000000  0.15000000     88.34
  30   -56.52663771   -56.53632526    -0.00968755  0.10186579  0.11121503  0.01853584  0.25070128  0.30000000  0.15000000     91.35
  31   -56.53632526   -56.51983786     0.01648741  0.05579881  0.06357846  0.01059641  0.16838793  0.30000000  0.15000000     94.61
  32   -56.51983786   -56.50557065     0.01426720  0.23572233  0.25094982  0.04182497  0.24059304  0.30000000  0.15000000     97.88
  33   -56.50557065   -56.53772343    -0.03215278  0.20023219  0.28602034  0.04767006  0.15970739  0.22338969  0.11169484    101.06
  34   -56.53772343   -56.50932278     0.02840066  0.04869272  0.06506210  0.01084368  0.20712745  0.30000000  0.15000000    104.28
  35   -56.50932278   -56.50927190     0.00005087  0.20169932  0.28350630  0.04725105  0.22411113  0.30000000  0.15000000    107.37
  36   -56.50927190   -56.53701911    -0.02774721  0.11978598  0.16774327  0.02795721  0.20992192  0.30000000  0.15000000    110.48
  37   -56.53701911   -56.54052545    -0.00350634  0.05197068  0.06979085  0.01163181  0.09145893  0.10816017  0.05408009    113.48
  38   -56.54052545   -56.54064380    -0.00011835  0.00812076  0.01139018  0.00189836  0.01972896  0.03115184  0.01557592    116.43
  39   -56.54064380   -56.53522027     0.00542352  0.00630319  0.00897785  0.00149631  0.25990234  0.30000000  0.15000000    119.51
  40   -56.53522027   -56.52977780     0.00544248  0.05093696  0.06369003  0.01061500  0.19549021  0.30000000  0.15000000    122.61
  41   -56.52977780   -56.51238281     0.01739499  0.11331565  0.13485412  0.02247569  0.16854260  0.30000000  0.15000000    125.70
  42   -56.51238281   -56.50463694     0.00774587  0.13808721  0.14594512  0.02432419  0.20174207  0.30000000  0.15000000    128.92
  43   -56.50463694   -56.48089815     0.02373879  0.14068261  0.15469478  0.02578246  0.23026383  0.30000000  0.15000000    132.15
  44   -56.48089815   -56.53343112    -0.05253296  0.29400394  0.32780930  0.05463488  0.24126388  0.30000000  0.15000000    135.38
  45   -56.53343112   -56.53587624    -0.00244512  0.09063816  0.11039229  0.01839872  0.13898241  0.21665044  0.10832522    138.45
  46   -56.53587624   -56.53345968     0.00241656  0.06370354  0.09047867  0.01507978  0.26148357  0.30000000  0.15000000    141.47
  47   -56.53345968   -56.53437842    -0.00091875  0.04881044  0.07311252  0.01218542  0.21790590  0.30000000  0.15000000    144.59
  48   -56.53437842   -56.53684158    -0.00246315  0.08386556  0.08744488  0.01457415  0.13307711  0.20817760  0.10408880    147.72
  49   -56.53684158   -56.52674744     0.01009414  0.06750413  0.07282699  0.01213783  0.22040403  0.25272590  0.12636295    150.83
  50   -56.52674744   -56.53684735    -0.01009991  0.13094735  0.15740320  0.02623387  0.19758490  0.30000000  0.15000000    154.01
  51   -56.53684735   -56.52952551     0.00732184  0.05945600  0.07862568  0.01310428  0.18149204  0.30000000  0.15000000    157.12
  52   -56.52952551   -56.53879555    -0.00927004  0.09364276  0.12068241  0.02011374  0.20044182  0.26650234  0.13325117    160.23
  53   -56.53879555   -56.54025040    -0.00145486  0.04321977  0.04746566  0.00791094  0.09301170  0.13234939  0.06617469    163.27
  54   -56.54025040   -56.52858968     0.01166072  0.02362201  0.02885335  0.00480889  0.24297903  0.30000000  0.15000000    166.34
  55   -56.52858968   -56.53743935    -0.00884967  0.12317189  0.13241383  0.02206897  0.21243565  0.30000000  0.15000000    169.57
  56   -56.53743935   -56.53413591     0.00330344  0.05212707  0.07606985  0.01267831  0.17744284  0.30000000  0.15000000    172.60
  57   -56.53413591   -56.53806072    -0.00392482  0.06555808  0.07556493  0.01259415  0.20021951  0.28955258  0.14477629    175.63
  58   -56.53806072   -56.54043481    -0.00237408  0.05010578  0.05766132  0.00961022  0.05817468  0.08420846  0.04210423    178.62
  59   -56.54043481   -56.54054907    -0.00011427  0.01611251  0.02154264  0.00359044  0.04692946  0.07168065  0.03584032    181.59
  60   -56.54054907   -56.54079308    -0.00024401  0.01536548  0.01673842  0.00278974  0.03054372  0.04476365  0.02238183    184.63
  61   -56.54079308   -56.52517079     0.01562229  0.00403375  0.00524012  0.00087335  0.22254745  0.30000000  0.15000000    187.65
  62   -56.52517079   -56.54042427    -0.01525348  0.10677942  0.10991877  0.01831980  0.25231240  0.30000000  0.15000000    190.72
  63   -56.54042427   -56.52458316     0.01584111  0.01278108  0.02033233  0.00338872  0.25060371  0.30000000  0.15000000    193.77
  64   -56.52458316   -56.54076569    -0.01618253  0.10844198  0.11144483  0.01857414  0.25624996  0.30000000  0.15000000    196.83
  65   -56.54076569   -56.52006945     0.02069624  0.01100983  0.01198920  0.00199820  0.22833844  0.30000000  0.15000000    199.90
  66   -56.52006945   -56.50933525     0.01073420  0.12578626  0.12977870  0.02162978  0.19857279  0.30000000  0.15000000    202.97
  67   -56.50933525   -56.53828454    -0.02894929  0.14349477  0.14849669  0.02474945  0.27758028  0.30000000  0.15000000    206.06
  68   -56.53828454   -56.53928918    -0.00100464  0.03867087  0.05963762  0.00993960  0.09545231  0.14717078  0.07358539    209.14
  69   -56.53928918   -56.53294533     0.00634385  0.04100797  0.04744194  0.00790699  0.11997949  0.21325091  0.10662545    212.28
  70   -56.53294533   -56.52447347     0.00847186  0.10841770  0.12503702  0.02083950  0.16118805  0.30000000  0.15000000    215.52
  71   -56.52447347   -56.52276601     0.00170746  0.14797655  0.16288072  0.02714679  0.21842998  0.30000000  0.15000000    218.77
  72   -56.52276601   -56.53901732    -0.01625131  0.11320382  0.12015182  0.02002530  0.20644400  0.30000000  0.15000000    221.86
  73   -56.53901732   -56.54073242    -0.00171510  0.02536969  0.03600409  0.00600068  0.10131848  0.13020969  0.06510485    224.87
  74   -56.54073242   -56.52440360     0.01632882  0.01030910  0.01296331  0.00216055  0.22670318  0.30000000  0.15000000    227.91
  75   -56.52440360   -56.54054151    -0.01613791  0.11092865  0.11363890  0.01893982  0.25476896  0.30000000  0.15000000    230.94
  76   -56.54054151   -56.54071651    -0.00017500  0.01343490  0.01728207  0.00288035  0.03565223  0.04364319  0.02182159    234.00
  77   -56.54071651   -56.52509177     0.01562474  0.01010040  0.01042979  0.00173830  0.16816509  0.30000000  0.15000000    237.14
  78   -56.52509177   -56.51304152     0.01205024  0.10471442  0.11752746  0.01958791  0.17520619  0.30000000  0.15000000    240.22
  79   -56.51304152   -56.53894468    -0.02590316  0.13475138  0.14130016  0.02355003  0.27088602  0.30000000  0.15000000    243.32
  80   -56.53894468   -56.54015025    -0.00120557  0.03246214  0.04620880  0.00770147  0.07289764  0.11427711  0.05713855    246.43
  81   -56.54015025   -56.54055954    -0.00040929  0.02949778  0.03216736  0.00536123  0.03774239  0.03976291  0.01988145    249.51
  82   -56.54055954   -56.52713012     0.01342942  0.01439050  0.01989064  0.00331511  0.21421919  0.30000000  0.15000000    252.57
  83   -56.52713012   -56.53690503    -0.00977491  0.09903653  0.10268419  0.01711403  0.23392721  0.30000000  0.15000000    255.80
  84   -56.53690503   -56.48622253     0.05068249  0.09717467  0.09817432  0.01636239  0.26229566  0.30000000  0.15000000    259.03
  85   -56.48622253   -56.52353557    -0.03731304  0.43348444  0.45875264  0.07645877  0.15090846  0.18537854  0.09268927    262.24
  86   -56.52353557   -56.50518364     0.01835193  0.22768687  0.23099395  0.03849899  0.17982156  0.30000000  0.15000000    265.47
  87   -56.50518364   -56.52699225    -0.02180861  0.21110767  0.29800623  0.04966771  0.21827260  0.30000000  0.15000000    268.49
  88   -56.52699225   -56.50815424     0.01883802  0.07160526  0.10870305  0.01811718  0.19727188  0.30000000  0.15000000    271.68
  89   -56.50815424   -56.53419946    -0.02604523  0.28482595  0.30430892  0.05071815  0.13205595  0.20804522  0.10402261    274.72
  90   -56.53419946   -56.53750094    -0.00330148  0.08060991  0.08710106  0.01451684  0.21051580  0.29664752  0.14832376    277.72
  91   -56.53750094   -56.52585821     0.01164273  0.02808330  0.03911945  0.00651991  0.22111146  0.30000000  0.15000000    280.75
  92   -56.52585821   -56.53946799    -0.01360978  0.11373201  0.15822971  0.02637162  0.10332374  0.19927307  0.09963653    283.76
  93   -56.53946799   -56.52826616     0.01120183  0.02952569  0.03738365  0.00623061  0.17374421  0.30000000  0.15000000    286.81
  94   -56.52826616   -56.54031187    -0.01204571  0.06965668  0.09077512  0.01512919  0.18036523  0.30000000  0.15000000    289.82
  95   -56.54031187   -56.53984882     0.00046305  0.01373630  0.01865717  0.00310953  0.09980382  0.14432894  0.07216447    292.85
  96   -56.53984882   -56.54001778    -0.00016896  0.01782014  0.02465490  0.00410915  0.10461072  0.13151876  0.06575938    295.88
  97   -56.54001778   -56.52754852     0.01246926  0.02414714  0.03189693  0.00531615  0.23626136  0.30000000  0.15000000    298.94
  98   -56.52754852   -56.52725231     0.00029621  0.09897411  0.10214914  0.01702486  0.15477860  0.30000000  0.15000000    302.12
  99   -56.52725231   -56.53312487    -0.00587256  0.09611589  0.12194637  0.02032439  0.17977168  0.30000000  0.15000000    305.23
 100   -56.53312487   -56.52963726     0.00348760  0.13766491  0.14135649  0.02355941  0.18551561  0.30000000  0.15000000    308.32
 ? Warning
 ? No convergence in max. number of iterations

 END OF GEOMETRY OPTIMIZATION.

 Current geometry (xyz format, in Angstrom)

    4
 KS-SCF000/DEF2-TZVP  ENERGY=-56.52963726
 N          0.0694055214       -0.0164953473        0.0024170726
 H         -0.2590074551        1.0342296620       -0.0210307527
 H         -0.3458617301       -0.4121401260       -0.9028168841
 H         -0.3594751943       -0.3928974611        0.8902639921

 **********************************************************************************************************************************

 Geometry written to block  1 of record 700


 **********************************************************************************************************************************
 DATASETS  * FILE   NREC   LENGTH (MB)   RECORD NAMES
              1      21       33.63       500      610      700      900      700(1)   950      970     1000      129      960   
                                          VAR    BASINP    GEOM    SYMINP    GEOM     ZMAT    AOBASIS   BASIS     P2S    ABASIS    
                                         1100     1400     1410     1200     1210     1080     1600     1650     1300     1700   
                                           S        T        V       H0       H01     AOSYM     SMH    MOLCAS    ERIS     OPER   
                                         1800   
                                         GRID   

              2       6        2.91       700     1000      520     1800     2100      700(1)
                                         GEOM     BASIS   MCVARS    GRID      RKS     GEOM   

 PROGRAMS   *        TOTAL      OPTG    KS-SCF       INT
 CPU TIMES  *       310.52    308.33      1.02      0.46
 REAL TIME  *       325.39 SEC
 DISK USED  *        45.60 MB
 **********************************************************************************************************************************


 PROGRAM * HESSIAN

 Computing numerical hessian using default procedure for command KS-SCF

 Using AUTO symmetry option

 Running default procedure: KS-SCF000
 

 Recomputing wavefunction at reference geometry

 Numerically approximating hessian using central gradient differences

 Task list generated. Total number of displacements:     24

   20 tasks completed, CPU=14s Elapsed=15s
 Tasks on processor    0 finished.  CPU=     17.43 sec, Elapsed=     18.07 sec. All tasks on all processors finished.

 KS-SCF hessian saved to record  5300.2

 PROGRAM * FREQUENCIES (Calculation of harmonic vibrational spectra for KS-SCF)


 Permanent Dipole Moment [debye]
   1-  3   -1.647573    0.244118   -0.032670

 Dipole Moment Norm    1.6658810 [debye]

 Dipole Moment Derivatives [debye/ang]
                   1             2             3             4             5             6             7             8
         1    -2.6414976     0.0813325    -0.0162693     0.9363813     0.3814643    -0.0013049     0.8559465    -0.2317342
         2     0.0339467    -1.5509724     0.0240915     0.6741932     0.0706971     0.0079186    -0.3643998     0.7349058
         3     0.0265865     0.0175299    -1.8294429    -0.0061326     0.0083085     0.7530054    -0.5452531    -0.0973895
                   9            10            11            12
         1    -0.4078267     0.8494701    -0.2311196     0.4253984
         2    -0.1776440    -0.3436053     0.7453745     0.1456184
         3     0.5207666     0.5248224     0.0715617     0.5555926

 Projecting out rotations and translations

   Low Vibration      Wavenumber
        Nr             [1/cm] 
        1                0.00
        2                0.00
        3                0.00
        4                0.00
        5                0.00
        6                0.00

     Vibration        Wavenumber
        Nr             [1/cm] 
        1             1185.29
        2             1620.11
        3             1747.53
        4             2685.47
        5             2911.70
        6             3123.00

 FREQUENCIES * CALCULATION OF NORMAL MODES FOR KS-SCF


 Atomic Coordinates

  Nr  Atom  Charge       X              Y              Z

   1   N     7.00    0.131157427   -0.031171689    0.004567605
   2   H     1.00   -0.489453154    1.954410811   -0.039742363
   3   H     1.00   -0.653583947   -0.778831963   -1.706076652
   4   H     1.00   -0.679309666   -0.742468597    1.682355124

 Gradient norm at reference geometry: 0.26721D+00

 ?WARNING: GRADIENT NORM NOT ZERO!

 Normal Modes

                              1 A         2 A         3 A         4 A         5 A  
 Wavenumbers [cm-1]         1185.29     1620.11     1747.53     2685.47     2911.70
 Intensities [km/mol]        141.30       20.35       16.78        2.40        1.70
 Intensities [relative]      100.00       14.41       11.88        1.70        1.21
           NX1             -0.10675    -0.00097     0.00069     0.01680    -0.02548
           NY1              0.01097    -0.06926     0.00161    -0.05344    -0.04352
           NZ1             -0.00232    -0.00247    -0.06209     0.00350    -0.03286
           HX2              0.44897    -0.28517     0.00385    -0.22053    -0.07135
           HY2              0.08765    -0.09200     0.02325     0.92731     0.13415
           HZ2              0.00546     0.02885     0.73826    -0.02227    -0.01641
           HX3              0.51484     0.16074     0.15761    -0.01297     0.31586
           HY3             -0.11929     0.50388    -0.42846    -0.09735     0.34838
           HZ3             -0.15817    -0.33866     0.08505    -0.11758     0.76499
           HX4              0.51939     0.13784    -0.17109     0.00011     0.10948
           HY4             -0.12077     0.55047     0.38286    -0.08741     0.12221
           HZ4              0.18497     0.34415     0.03938     0.09124    -0.29200

                              6 A  
 Wavenumbers [cm-1]         3123.00
 Intensities [km/mol]          6.51
 Intensities [relative]        4.61
           NX1              0.01410
           NY1              0.01800
           NZ1             -0.07233
           HX2              0.02383
           HY2             -0.03731
           HZ2             -0.01823
           HX3              0.13028
           HY3              0.12345
           HZ3              0.26803
           HX4             -0.34997
           HY4             -0.33631
           HZ4              0.75522


 Normal Modes of low/zero frequencies

                                  1           2           3           4           5
 Wavenumbers [cm-1]            0.00        0.00        0.00        0.00        0.00
 Intensities [km/mol]          0.00        0.00        0.00        0.00        0.00
 Intensities [relative]        0.00        0.00        0.00        0.00        0.00
           NX1             -0.02700    -0.02267    -0.01016    -0.02264     0.05675
           NY1              0.13918     0.01323     0.01686     0.18764    -0.05908
           NZ1              0.04337     0.02906     0.18786     0.00247     0.15087
           HX2              0.04564    -0.31421    -0.43862    -0.00197     0.60119
           HY2              0.16888    -0.08765    -0.11538     0.18777     0.10651
           HZ2              0.35698    -0.40832     0.26291    -0.28115    -0.05413
           HX3              0.20278     0.61251     0.03389    -0.19254     0.03631
           HY3              0.51506    -0.32149    -0.12293    -0.09708     0.03473
           HZ3             -0.22632    -0.11603     0.22875     0.20484     0.11925
           HX4             -0.30041    -0.42374     0.25617     0.12593    -0.31587
           HY4             -0.17692     0.09880    -0.18461     0.48664     0.27841
           HZ4             -0.22271    -0.12841     0.23109     0.20100     0.11396

                                  6
 Wavenumbers [cm-1]            0.00
 Intensities [km/mol]          0.00
 Intensities [relative]        0.00
           NX1              0.23196
           NY1              0.05375
           NZ1             -0.02091
           HX2              0.02022
           HY2             -0.01196
           HZ2              0.00031
           HX3              0.32212
           HY3             -0.00854
           HZ3             -0.03505
           HX4              0.29779
           HY4             -0.05389
           HZ4             -0.03475


 Frequencies dumped to record   5400.2

 Zero point energy:  0.03023834 [H]     6636.55 [1/CM]       79.39 [KJ/MOL]

 Recomputing wavefunction at initial geometry


 **********************************************************************************************************************************
 DATASETS  * FILE   NREC   LENGTH (MB)   RECORD NAMES
              1      21       33.63       500      610      700      900      700(1)   950      970     1000      129      960   
                                          VAR    BASINP    GEOM    SYMINP    GEOM     ZMAT    AOBASIS   BASIS     P2S    ABASIS    
                                         1100     1400     1410     1200     1210     1080     1600     1650     1300     1700   
                                           S        T        V       H0       H01     AOSYM     SMH    MOLCAS    ERIS     OPER   
                                         1800   
                                         GRID   

              2      10        3.15       700     1000      520     1800     2100      700(1)   701     5300     5450     5400   
                                         GEOM     BASIS   MCVARS    GRID      RKS     GEOM     GEOM     HESS     NMOD     FREQ   

 PROGRAMS   *        TOTAL      FREQ      OPTG    KS-SCF       INT
 CPU TIMES  *       329.04     18.47    308.33      1.02      0.46
 REAL TIME  *       345.03 SEC
 DISK USED  *        45.88 MB
 **********************************************************************************************************************************

 Density functional group M06=XC-M06
 Functional: XC-M06(via MFM 1.6)                                               Gradient terms: 1
 Use libxcgrid:  F
 Use grid at  1800.2
 

 Exact exchange will be calculated, factor:  0.2700

 Functional: XC-M06                    Factor:  1.0000
 
   42775 words reserved for DFT integration

 PROGRAM * RKS-SCF (Restricted closed shell Kohn-Sham)     Authors: W. Meyer, H.-J. Werner, P.J. Knowles, 1993

 NUMBER OF ELECTRONS:       5+    5-    SPACE SYMMETRY=1    SPIN SYMMETRY: Singlet 
 CONVERGENCE THRESHOLDS:    1.00E-06 (Density)    1.00E-06 (Energy)
 MAX. NUMBER OF ITERATIONS:       60
 INTERPOLATION TYPE:            DIIS
 INTERPOLATION STEPS:              2 (START)      1 (STEP)
 LEVEL SHIFTS:                  0.00 (CLOSED)  0.00 (OPEN) 



 Use fine grid record 1800.2 for energy threshold  1.0D-06
 Orbital guess generated from atomic densities. Full valence occupancy:    5

 Molecular orbital dump at record        2101.2

 Initial occupancy:   5

 ITERATION    DDIFF          GRAD             ENERGY        2-EL.EN.            DIPOLE MOMENTS         DIIS   ORB.
    1      0.000D+00      0.000D+00       -56.46198387     76.728528   -0.98386    0.19665   -0.03435    0    start
    2      0.000D+00      0.184D-01       -56.38682737     67.950791   -0.18198   -0.06465    0.01989    1    diag
    3      0.196D-01      0.271D-01       -56.52954622     73.179397   -0.63683    0.09872   -0.01304    2    diag
    4      0.124D-01      0.679D-03       -56.52963042     73.093941   -0.64891    0.09532   -0.01279    3    diag
    5      0.621D-03      0.212D-03       -56.52963678     73.112720   -0.64676    0.09594   -0.01279    4    diag
    6      0.154D-03      0.499D-04       -56.52963724     73.118535   -0.64824    0.09603   -0.01286    5    diag
    7      0.230D-04      0.246D-05       -56.52963724     73.118774   -0.64824    0.09606   -0.01285    6    diag
    8      0.234D-05      0.358D-06       -56.52963724     73.118822   -0.64825    0.09604   -0.01285    7    diag
    9      0.284D-06      0.102D-06       -56.52963724     73.118823   -0.64825    0.09605   -0.01285    0    orth

 Final occupancy:   5

 !RKS STATE  1.1 Energy               -56.529637239776
 Nuclear energy                        11.24951113
 One-electron energy                  -98.46725751
 Two-electron energy                   36.55941161
 SCF exchange energy                   -7.58374124     Factor= 0.2700
 Density functional                    -5.87130247     XC-M06=-5.87130247
 Virial quotient                       -1.00856924
 !RKS STATE  1.1 Dipole moment         -0.64824547     0.09605156    -0.01285064
 Dipole moment /Debye                  -1.64756772     0.24412272    -0.03266093

 Orbital energies:

         1.1          2.1          3.1          4.1          5.1          6.1          7.1
    -14.377165    -0.841631    -0.468772    -0.436055    -0.277278     0.018476     0.086853


 HOMO      5.1    -0.277278 =      -7.5451eV
 LUMO      6.1     0.018476 =       0.5028eV
 LUMO-HOMO         0.295754 =       8.0479eV


 **********************************************************************************************************************************
 DATASETS  * FILE   NREC   LENGTH (MB)   RECORD NAMES
              1      21       33.63       500      610      700      900      700(1)   950      970     1000      129      960   
                                          VAR    BASINP    GEOM    SYMINP    GEOM     ZMAT    AOBASIS   BASIS     P2S    ABASIS    
                                         1100     1400     1410     1200     1210     1080     1600     1650     1300     1700   
                                           S        T        V       H0       H01     AOSYM     SMH    MOLCAS    ERIS     OPER   
                                         1800   
                                         GRID   

              2      11        5.68       700     1000      520     1800     2100      700(1)   701     5300     5450     5400   
                                         GEOM     BASIS   MCVARS    GRID      RKS     GEOM     GEOM     HESS     NMOD     FREQ   
                                         2101   
                                          RKS  

 PROGRAMS   *        TOTAL    KS-SCF      FREQ      OPTG    KS-SCF       INT
 CPU TIMES  *       330.01      0.92     18.47    308.33      1.02      0.46
 REAL TIME  *       346.02 SEC
 DISK USED  *        45.88 MB
 **********************************************************************************************************************************


 PROGRAM * SURF (Surface generation)   Authors: G. Rauhut 2004, T. Hrenar 2005, M. Neff 2012, D. Oschetzki 2013

 Freezing grid

 Reference geometry in SURF calculation

   1  N     7.00    -0.004567605   -0.031171689    0.131157427
   2  H     1.00     0.039742363    1.954410811   -0.489453154
   3  H     1.00     1.706076652   -0.778831963   -0.653583947
   4  H     1.00    -1.682355124   -0.742468597   -0.679309666


 The phase of the following normal coordinates was changed:
  5

 Information about detected symmetry elements:

 Detected point group: C1 

 Starting mppx-calculation of energy surfaces:

 Calculating 1D potential

 1D:   6  Points:   6 Conv: 0.03898740 0.03897850
 1D:   5  Points:   6 Conv: 0.03983835 0.03980096
 1D:   2  Points:   6 Conv: 0.01594197 0.01595761
 1D:   4  Points:   8 Conv: 0.04107447 0.04107152
 1D:   3  Points:   8 Conv: 0.01735261 0.01735061
 1D:   1  Points:   8 Conv: 0.00981275 0.00980802

 The determined shift and scalnm parameters are:

 scalnm,mode= 1,sfac=1.000,shift= 1
 scalnm,mode= 2,sfac=1.000,shift=-1
 scalnm,mode= 3,sfac=1.000,shift= 0
 scalnm,mode= 4,sfac=1.000,shift= 1
 scalnm,mode= 5,sfac=1.000,shift=-2
 scalnm,mode= 6,sfac=1.000,shift=-2

 Harmonic and 1D-anharmonic vibrational frequencies

   Mode             Harmonic     Diagonal     IR Int

   6 A   (A  )       3123.00      3218.69       6.15
   5 A   (A  )       2911.70      3338.65       2.21
   4 A   (A  )       2685.47      3462.82       1.84
   3 A   (A  )       1747.53      1723.12      17.08
   2 A   (A  )       1620.11      1688.63      18.67
   1 A   (A  )       1185.29      1135.49     156.45

 Calculating 2D coupling potential

 2D:   6   5  Points:  36 Conv: 0.01383032 0.01405590
 2D:   6   4  Points:  36 Conv: 0.00381714 0.00385706
 2D:   6   3  Points:  36 Conv: 0.00122146 0.00122967
 2D:   5   3  Points:  36 Conv: 0.00131484 0.00131914
 2D:   5   1  Points:  36 Conv: 0.00364629 0.00370784
 2D:   4   1  Points:  36 Conv: 0.00299906 0.00305084
 2D:   6   2  Points:  64 Conv: 0.00284101 0.00284561
 2D:   6   1  Points:  64 Conv: 0.00306291 0.00307192
 2D:   5   4  Points:  64 Conv: 0.00658750 0.00659449
 2D:   5   2  Points:  64 Conv: 0.00191757 0.00191821
 2D:   4   3  Points:  64 Conv: 0.00267839 0.00267625
 2D:   4   2  Points:  64 Conv: 0.00168957 0.00168815
 2D:   3   2  Points:  64 Conv: 0.00093025 0.00093738
 2D:   3   1  Points:  64 Conv: 0.00023532 0.00023804
 2D:   2   1  Points: 100 Conv: 0.00059371 0.00059731

 Calculating 3D coupling potential

 3D:   5   3   2  Points:   64 Conv: 0.00104639 0.00104736
 3D:   3   2   1  Points:   64 Conv: 0.00017209 0.00021469
 3D:   6   5   4  Points:  216 Conv: 0.00170153 0.00168184
 3D:   6   5   2  Points:  216 Conv: 0.00227857 0.00225625
 3D:   6   5   1  Points:  216 Conv: 0.00192775 0.00189414
 3D:   6   4   3  Points:  216 Conv: 0.00146849 0.00145251
 3D:   6   4   2  Points:  216 Conv: 0.00053204 0.00052768
 3D:   6   4   1  Points:  216 Conv: 0.00062566 0.00061862
 3D:   6   2   1  Points:  216 Conv: 0.00057226 0.00056833
 3D:   5   4   2  Points:  216 Conv: 0.00153089 0.00150342
 3D:   5   3   1  Points:  216 Conv: 0.00050837 0.00050926
 3D:   4   2   1  Points:  216 Conv: 0.00121826 0.00119774
 3D:   6   5   3  Points:  512 Conv: 0.00104815 0.00104783
 3D:   6   3   2  Points:  512 Conv: 0.00119805 0.00118786
 3D:   6   3   1  Points:  512 Conv: 0.00115992 0.00116003
 3D:   5   4   3  Points:  512 Conv: 0.00142251 0.00142376
 3D:   5   4   1  Points:  512 Conv: 0.00138013 0.00137883
 3D:   5   2   1  Points:  512 Conv: 0.00071936 0.00072546
 3D:   4   3   2  Points:  512 Conv: 0.00075344 0.00075139
 3D:   4   3   1  Points:  512 Conv: 0.00053979 0.00054321

 Grid calculation completed

 Formal number of grid points:     85856
 Actual number of grid points:      7374 Time (sec):       2671.9
 Number of 1D grid points:           162 Time (sec):         58.7
 Number of 2D grid points:           828 Time (sec):        296.2
 Number of 3D grid points:          6384 Time (sec):       2317.0

 CPU-Time for SURF calculation:       2673.3 sec.


 **********************************************************************************************************************************
 DATASETS  * FILE   NREC   LENGTH (MB)   RECORD NAMES
              1      21       33.59       500      610      700      900      700(1)   950      970     1000      129      960   
                                          VAR    BASINP    GEOM    SYMINP    GEOM     ZMAT    AOBASIS   BASIS     P2S    ABASIS    
                                         1100     1400     1410     1200     1210     1080     1600     1650     1300     1700   
                                           S        T        V       H0       H01     AOSYM     SMH    MOLCAS    ERIS     OPER   
                                         1800   
                                         GRID   

              2      14       16.84       700     1000      520     1800     2100      700(1)   701     5300     5450     5400   
                                         GEOM     BASIS   MCVARS    GRID      RKS     GEOM     GEOM     HESS     NMOD     FREQ   
                                         2101     5600     5650     5550   
                                          RKS     SURF    DIPOLE   VIBINFO    

 PROGRAMS   *        TOTAL      SURF       INT    KS-SCF       INT    KS-SCF       INT    KS-SCF       INT    KS-SCF       INT
 CPU TIMES  *      3003.38     10.27      0.34      1.02      0.40      1.01      0.41      1.01      0.38      1.00      0.35
 REAL TIME  *      3244.88 SEC
 DISK USED  *        59.59 MB
 **********************************************************************************************************************************


 PROGRAM * POLY (Transformation of PES grid representation to an analytic representation)   Authors: G. Rauhut 2008, M. Neff 2010, B. Ziegler 2019
 
 Reading potential information from:      5600.2
 Reading dipole information from:         5650.2
 
 Watson correction term has been added to the potential.

 Time to compute the number of basis functions:    0.0 sec
 Number of basis functions:  8

        dim  chi_av       chi_max      time in sec      Surface

 Energy 1D   0.2053E-22   0.1040E-21     0.0            3
        2D   0.2117E-22   0.1840E-21     0.0            6  3
        3D   0.3203E-22   0.4569E-21     0.0            6  5  3

 Dipole 1D   0.3900E-28   0.5611E-27     0.0            5
        2D   0.3034E-28   0.3335E-27     0.0            5  1
        3D   0.4800E-29   0.4146E-28     0.1            6  4  3
 
 Harmonic frequencies obtained from polynomial fit

   Mode        Ref.         Fit

   6 A       3123.00     3129.21
   5 A       2911.70     2916.14
   4 A       2685.47     2663.52
   3 A       1747.53     1723.62
   2 A       1620.11     1654.62
   1 A       1185.29     1173.86
 

 CPU-Time for POLY calculation:          3.3 sec.


 **********************************************************************************************************************************
 DATASETS  * FILE   NREC   LENGTH (MB)   RECORD NAMES
              1      21       33.59       500      610      700      900      700(1)   950      970     1000      129      960   
                                          VAR    BASINP    GEOM    SYMINP    GEOM     ZMAT    AOBASIS   BASIS     P2S    ABASIS    
                                         1100     1400     1410     1200     1210     1080     1600     1650     1300     1700   
                                           S        T        V       H0       H01     AOSYM     SMH    MOLCAS    ERIS     OPER   
                                         1800   
                                         GRID   

              2      16       17.33       700     1000      520     1800     2100      700(1)   701     5300     5450     5400   
                                         GEOM     BASIS   MCVARS    GRID      RKS     GEOM     GEOM     HESS     NMOD     FREQ   
                                         2101     5600     5650     5550     5750     5770   
                                          RKS     SURF    DIPOLE   VIBINFO   POLY      MU  

 PROGRAMS   *        TOTAL      POLY    KS-SCF       INT    KS-SCF       INT    KS-SCF       INT    KS-SCF       INT    KS-SCF
 CPU TIMES  *      3006.71      3.28      1.00      0.34      1.02      0.40      1.01      0.41      1.01      0.38      1.00
 REAL TIME  *      3248.29 SEC
 DISK USED  *        59.59 MB
 **********************************************************************************************************************************


 PROGRAM * VSCF (Vibrational self-consistent field)   Authors: G. Rauhut 2004, M. Neff 2009, D. Oschetzki 2013
 
 Reading potential information from:      5600.2    5750.2
 Reading dipole information from:         5650.2    5750.2


 Non-zero Coriolis zeta constants

   Modes        a             b             c

   6  5     -0.001181      0.000792      0.042264
   6  4      0.018895     -0.031083     -0.011898
   6  3      0.268047     -0.091176     -0.219793
   6  2     -0.127629     -0.320194      0.787414
   6  1      0.186986     -0.720600     -0.053704
   5  4      0.043652      0.012896      0.004891
   5  3     -0.130754     -0.170991     -0.616494
   5  2     -0.217013      0.159549     -0.330986
   5  1      0.432012      0.315285      0.032325
   4  3     -0.001831     -0.145332     -0.639060
   4  2     -0.291329      0.002508      0.042141
   4  1      0.418563     -0.028884      0.004469
   3  2      0.007017      0.079041     -0.222840
   3  1      0.016109     -0.548624     -0.099087
   2  1      0.672934      0.022643      0.023047
 
 Starting VSCF Iterations

      Mode  Iter     Status    E(SCF)       E(MP1)    E(TOTAL)
        0     7       1.00     4851.08      134.51     4985.59
       6^1   12       1.00     8430.15        9.42     8439.57
       5^1   10       1.00     8284.64      119.94     8404.58
       4^1    7       1.00     8129.68      241.28     8370.97
       3^1    9       1.00     6278.37      307.61     6585.98
       2^1    9       1.00     6342.51      253.09     6595.60
       1^1   17       1.00     5214.29      666.63     5880.91
       3^2   11       1.00     7682.68      500.79     8183.47
       2^2   10       1.00     7819.36      380.92     8200.29
       1^2   18       1.00     5072.95     1578.04     6650.99
  3^1  6^1   12       1.00     9833.68      192.67    10026.34
  2^1  6^1   12       1.00     9870.96      156.01    10026.96
  1^1  6^1   16       1.00     8910.96      452.68     9363.64
  3^1  5^1   10       1.00     9682.18      310.11     9992.29
  2^1  5^1   10       1.00     9725.93      263.37     9989.30
  1^1  5^1   16       1.00     8733.84      589.68     9323.52
  3^1  4^1    9       1.00     9487.32      452.20     9939.52
  2^1  4^1    9       1.00     9606.39      367.00     9973.39
  1^1  4^1   16       1.00     8560.84      728.49     9289.33
  2^1  3^1   10       1.00     7783.62      418.14     8201.76
  1^1  3^1   20       1.00     6521.29      953.02     7474.32
  1^1  2^1   19       1.00     6580.02      902.64     7482.66

 Results of VSCF calculation: (Frequencies in cm-1)

 Fundamentals

      Mode        Harmonic    Diagonal       VSCF      E(abs)     IR Intens
       6^1 A       3123.00     3218.68     3453.98     8439.57        5.11
       5^1 A       2911.70     3338.67     3418.99     8404.58        2.38
       4^1 A       2685.47     3462.85     3385.38     8370.97        1.15
       3^1 A       1747.53     1723.06     1600.39     6585.98       19.77
       2^1 A       1620.11     1688.58     1610.01     6595.60       24.30
       1^1 A       1185.29     1135.42      895.33     5880.91      195.66

 Overtones

      Mode        Harmonic    Diagonal       VSCF      E(abs)     IR Intens
       3^2 A       3495.07     3444.88     3197.89     8183.47        0.78
       2^2 A       3240.22     3369.30     3214.70     8200.29        0.47
       1^2 A       2370.57     2260.91     1665.40     6650.99        1.98

 Combination bands

      Mode        Harmonic    Diagonal       VSCF      E(abs)     IR Intens
  3^1  6^1 A       4870.54     4941.74     5040.76    10026.34        0.80
  2^1  6^1 A       4743.11     4907.26     5041.38    10026.96        0.81
  1^1  6^1 A       4308.29     4354.10     4378.06     9363.64        2.02
  3^1  5^1 A       4659.23     5061.73     5006.71     9992.29        0.83
  2^1  5^1 A       4531.81     5027.25     5003.72     9989.30        0.40
  1^1  5^1 A       4096.99     4474.09     4337.93     9323.52        1.19
  3^1  4^1 A       4433.00     5185.92     4953.94     9939.52        0.31
  2^1  4^1 A       4305.58     5151.44     4987.80     9973.39        1.02
  1^1  4^1 A       3870.75     4598.27     4303.74     9289.33        1.00
  2^1  3^1 A       3367.64     3411.65     3216.18     8201.76        0.03
  1^1  3^1 A       2932.82     2858.48     2488.73     7474.32        0.09
  1^1  2^1 A       2805.40     2824.00     2497.08     7482.66        1.05

 Zero point vibrational energy (cm-1)

             ZPVE     Sum 0->1
 Harm.     6636.55     6636.55
 Diag.     5021.48     7283.63
 VSCF      4985.59     7182.05


 VSCF/ZPVE vibrationally averaged geometry (Bohr)

    1  N     7.00    -0.001743477   -0.012687934    0.123348093
    2  H     1.00     0.025859088    1.852599793   -0.391400538
    3  H     1.00     1.560427941   -0.855503051   -0.642188504
    4  H     1.00    -1.562062557   -0.820806190   -0.680252129


 VSCF/ZPVE vibrationally averaged geometric parameters

    Ra parameters

                  Bohr          Angstrom      Delta (Ang.)
     1- 2     1.935207058     1.024067474    -0.077035577
     1- 3     1.933070910     1.022937073    -0.048711283
     1- 4     1.932207045     1.022479935    -0.032929641

    Rg parameters

                  Bohr          Angstrom      Delta (Ang.)
     1- 2     1.947575331     1.030612482    -0.070490569
     1- 3     1.947198981     1.030413326    -0.041235029
     1- 4     1.946784366     1.030193921    -0.025215655


 Rotational Constants

         Vibrationally averaged           Reference geometry

           cm-1         Ghz               cm-1         Ghz
   A     10.07771    302.12213           9.39442    281.63759
   B      9.96462    298.73181           8.40105    251.85713
   C      6.23508    186.92305           5.56480    166.82855

 CPU-Time for VSCF calculation:          7.9 sec.


 **********************************************************************************************************************************
 DATASETS  * FILE   NREC   LENGTH (MB)   RECORD NAMES
              1      21       33.59       500      610      700      900      700(1)   950      970     1000      129      960   
                                          VAR    BASINP    GEOM    SYMINP    GEOM     ZMAT    AOBASIS   BASIS     P2S    ABASIS    
                                         1100     1400     1410     1200     1210     1080     1600     1650     1300     1700   
                                           S        T        V       H0       H01     AOSYM     SMH    MOLCAS    ERIS     OPER   
                                         1800   
                                         GRID   

              2      17       23.27       700     1000      520     1800     2100      700(1)   701     5300     5450     5400   
                                         GEOM     BASIS   MCVARS    GRID      RKS     GEOM     GEOM     HESS     NMOD     FREQ   
                                         2101     5600     5650     5550     5750     5770     5700   
                                          RKS     SURF    DIPOLE   VIBINFO   POLY      MU      VSCF   

 PROGRAMS   *        TOTAL      VSCF    KS-SCF       INT    KS-SCF       INT    KS-SCF       INT    KS-SCF       INT    KS-SCF
 CPU TIMES  *      3014.64      7.88      1.00      0.34      1.02      0.40      1.01      0.41      1.01      0.38      1.00
 REAL TIME  *      3256.67 SEC
 DISK USED  *        59.59 MB
 **********************************************************************************************************************************

 VSCF/DEF2-TZVP energy=      0.000000000000

            POLY          KS-SCF          KS-SCF          KS-SCF          KS-SCF          KS-SCF          KS-SCF          KS-SCF
    -56.46428025    -56.46428025    -56.45978615    -56.46614938    -56.46157047    -56.46998524    -56.46532136    -56.47121799
 **********************************************************************************************************************************
 Molpro calculation terminated with 1 warning(s)
