
 Primary working directories    : /jobfs/7116597.gadi-pbs/molpro.BixlO39Q6N
 Secondary working directories  : /jobfs/7116597.gadi-pbs/molpro.BixlO39Q6N
 Wavefunction directory         : /home/561/pk8622/wfu/
 Main file repository           : /jobfs/7116597.gadi-pbs/molpro.BixlO39Q6N/

 id        : anu

 Nodes                            nprocs
 gadi-cpu-clx-0266.gadi.nci.org.au    4

 Using customized tuning parameters: mindgm=1; mindgv=20; mindgc=4; mindgr=1; noblas=0; minvec=7
 default implementation of scratch files=df  


 Variables initialized (934), CPU time= 0.01 sec
 ***,MOLPRO Geometry optimization + VSCF calculation for trichlorofluoromethane
 
 memory,40,m
 basis=def2-TZVP
 
 orient,mass
 geomtyp=xyz
 geometry={
 5
 C,-0.35973, 1.37679,-0.04814
 Cl, 1.41506, 1.39227,-0.06459
 F,-0.81285, 2.25577,-0.98236
 Cl,-0.96181, 1.87642, 1.54494
 Cl,-0.96181,-0.24375,-0.44985
 }
 mass,iso
 
 ks,M06
 optg
 
 frequencies,symm=auto
 
 label1
 ks,M06
 
 {surf,start1D=label1,sym=auto
  intensity,dipole=2}
 
 poly
 vscf,combi=1,pot=poly
 vci,combi=1,vam=3
 Commands  initialized (763), CPU time= 0.01 sec, 617 directives.
 Default parameters read. Elapsed time= 0.12 sec

 Checking input...
 Passed
1


                                         ***  PROGRAM SYSTEM MOLPRO  ***
                                       Copyright, TTI GmbH Stuttgart, 2015
                                    Version 2019.2 linked Nov 21 2019 12:21:21


 **********************************************************************************************************************************
 LABEL *   MOLPRO Geometry optimization + VSCF calculation for trichlorofluoromet        
  64 bit mppx version                                                                    DATE: 17-Jun-20          TIME: 10:46:34  
 **********************************************************************************************************************************

 SHA1:             8dbd9ae1082e4ce945b0f27595c9eb2d4aa09004
 **********************************************************************************************************************************

 Variable memory set to   40000000 words,  buffer space 

 SETTING BASIS          =    DEF2-TZVP
 SETTING GEOMTYP        =    XYZ
 ZCENTRE=MASS
 


 Using masses of most abundant isotopes

 **********************************************************************************************************************************


 Recomputing integrals since basis changed


 Using spherical harmonics

 Library entry C      S def2-TZVP            selected for orbital group  1
 Library entry C      P def2-TZVP            selected for orbital group  1
 Library entry C      D def2-TZVP            selected for orbital group  1
 Library entry C      F def2-TZVP            selected for orbital group  1
 Library entry CL     S def2-TZVP            selected for orbital group  2
 Library entry CL     P def2-TZVP            selected for orbital group  2
 Library entry CL     D def2-TZVP            selected for orbital group  2
 Library entry CL     F def2-TZVP            selected for orbital group  2
 Library entry F      S def2-TZVP            selected for orbital group  3
 Library entry F      P def2-TZVP            selected for orbital group  3
 Library entry F      D def2-TZVP            selected for orbital group  3
 Library entry F      F def2-TZVP            selected for orbital group  3


 PROGRAM * SEWARD (Integral evaluation for generally contracted gaussian basis sets)     Author: Roland Lindh, 1990

 Geometry written to block  1 of record 700

 Orientation using atomic masses  
 Molecule type: Asymmetric top
 Rotational constants:       2.4185294      1.7053954      2.4185808 GHz

 Point group  C1  



 ATOMIC COORDINATES

 NR  ATOM    CHARGE       X              Y              Z

   1  C       6.00   -0.000004505   -0.472643432   -0.000140049
   2  CL     17.00    0.009614516    0.605635754    3.175937342
   3  F       9.00    0.000010543   -3.043428275    0.001015081
   4  CL     17.00    2.745737220    0.605020928   -1.596548134
   5  CL     17.00   -2.755355918    0.605016094   -1.579892637

 Bond lengths in Bohr (Angstrom)

 1-2  3.354138656  1-3  2.570785103  1-4  3.353949443  1-5  3.353942412
     ( 1.774933739)     ( 1.360400891)     ( 1.774833612)     ( 1.774829891)

 Bond angles

  2-1-3  108.72653910   2-1-4  110.18594839   2-1-5  110.18610758   3-1-4  108.75493915

  3-1-5  108.75533862   4-1-5  110.18890151

 NUCLEAR CHARGE:                   66
 NUMBER OF PRIMITIVE AOS:         309
 NUMBER OF SYMMETRY AOS:          281
 NUMBER OF CONTRACTIONS:          173   (  173A   )
 NUMBER OF CORE ORBITALS:          17   (   17A   )
 NUMBER OF VALENCE ORBITALS:       20   (   20A   )


 NUCLEAR REPULSION ENERGY  364.72852463


 Eigenvalues of metric

         1 0.239E-02 0.390E-02 0.390E-02 0.402E-02 0.737E-02 0.117E-01 0.173E-01 0.173E-01


 Contracted 2-electron integrals neglected if value below      1.0D-11
 AO integral compression algorithm  1   Integral accuracy      1.0D-11

     369.623 MB (compressed) written to integral file ( 34.5%)


 NUMBER OF SORTED TWO-ELECTRON INTEGRALS:  113273826.     BUFFER LENGTH:  32768
 NUMBER OF SEGMENTS:   8  SEGMENT LENGTH:   15999503      RECORD LENGTH: 524288

 Memory used in sort:      16.56 MW

 SORT1 READ   133908609. AND WROTE    87404548. INTEGRALS IN    253 RECORDS. CPU TIME:     3.20 SEC, REAL TIME:     3.63 SEC
 SORT2 READ    87404548. AND WROTE   113273826. INTEGRALS IN   1410 RECORDS. CPU TIME:     1.96 SEC, REAL TIME:     2.24 SEC

 FILE SIZES:   FILE 1:   400.8 MBYTE,  FILE 4:  1061.2 MBYTE,   TOTAL:   1462.0 MBYTE

 OPERATOR DM      FOR CENTER  0  COORDINATES:    0.000000    0.000000    0.000000


 **********************************************************************************************************************************
 DATASETS  * FILE   NREC   LENGTH (MB)   RECORD NAMES
              1      19      335.76       500      610      700      900      950      970     1000      129      960     1100   
                                          VAR    BASINP    GEOM    SYMINP    ZMAT    AOBASIS   BASIS     P2S    ABASIS      S 
                                         1400     1410     1200     1210     1080     1600     1650     1300     1700   
                                           T        V       H0       H01     AOSYM     SMH    MOLCAS    ERIS     OPER   

 PROGRAMS   *        TOTAL       INT
 CPU TIMES  *        46.02     45.29
 REAL TIME  *        47.28 SEC
 DISK USED  *         1.46 GB
 **********************************************************************************************************************************

 Density functional group M06=XC-M06
 Functional: XC-M06(via MFM 1.6)                                               Gradient terms: 1
 Use libxcgrid:  F
 Use grid at  1800.2
 

 Exact exchange will be calculated, factor:  0.2700

 Functional: XC-M06                    Factor:  1.0000
 
 Generated new metagrid on record  1800.2 with target accuracy 1.0D-06 and 42482 points in CPU time    0.4
 Computed new grid on record 1800.1 in CPU time    0.5
  141995 words reserved for DFT integration

 PROGRAM * RKS-SCF (Restricted closed shell Kohn-Sham)     Authors: W. Meyer, H.-J. Werner, P.J. Knowles, 1993

 NUMBER OF ELECTRONS:      33+   33-    SPACE SYMMETRY=1    SPIN SYMMETRY: Singlet 
 CONVERGENCE THRESHOLDS:    1.00E-06 (Density)    1.00E-06 (Energy)
 MAX. NUMBER OF ITERATIONS:       60
 INTERPOLATION TYPE:            DIIS
 INTERPOLATION STEPS:              2 (START)      1 (STEP)
 LEVEL SHIFTS:                  0.00 (CLOSED)  0.00 (OPEN) 



 Use fine grid record 1800.2 for energy threshold  1.0D-06
 Orbital guess generated from atomic densities. Full valence occupancy:   33

 Molecular orbital dump at record        2100.2

 Initial occupancy:  33

 ITERATION    DDIFF          GRAD             ENERGY        2-EL.EN.            DIPOLE MOMENTS         DIIS   ORB.
    1      0.000D+00      0.000D+00     -1518.44551617   2029.901177   -0.00001    0.17919   -0.00091    0    start
    2      0.000D+00      0.421D-02     -1518.29330284   2031.053211    0.00016    0.37213    0.00273    1    diag
    3      0.531D-02      0.800D-02     -1518.50842063   2027.359025   -0.00009    0.15050    0.00053    2    diag
    4      0.333D-02      0.491D-03     -1518.50905887   2029.138480    0.00002    0.23600    0.00066    3    diag
    5      0.424D-03      0.281D-03     -1518.50934437   2028.737891   -0.00002    0.18572    0.00058    4    diag
    6      0.158D-03      0.896D-04     -1518.50936800   2028.664915   -0.00002    0.20186    0.00059    5    diag
    7      0.507D-04      0.968D-05     -1518.50936828   2028.668947   -0.00002    0.19806    0.00060    6    diag
    8      0.728D-05      0.316D-05     -1518.50936833   2028.670891   -0.00002    0.19955    0.00059    7    diag
    9      0.186D-05      0.710D-06     -1518.50936833   2028.670732   -0.00002    0.19929    0.00059    8    diag
   10      0.405D-06      0.911D-07     -1518.50936833   2028.670662   -0.00002    0.19930    0.00059    0    orth

 Final occupancy:  33

 !RKS STATE  1.1 Energy             -1518.509368327860
 Nuclear energy                       364.72852463
 One-electron energy                -2823.47377941
 Two-electron energy                 1014.33533124
 SCF exchange energy                  -97.82040354     Factor= 0.2700
 Density functional                   -74.09944478     XC-M06=-74.09944478
 Virial quotient                       -1.00189163
 !RKS STATE  1.1 Dipole moment         -0.00001791     0.19929816     0.00059267
 Dipole moment /Debye                  -0.00004553     0.50653223     0.00150631

 Orbital energies:

         1.1          2.1          3.1          4.1          5.1          6.1          7.1          8.1          9.1         10.1
   -101.750292  -101.750271  -101.750265   -24.832683   -10.511335    -9.621298    -9.621278    -9.621272    -7.332955    -7.332934

        11.1         12.1         13.1         14.1         15.1         16.1         17.1         18.1         19.1         20.1
     -7.332927    -7.322635    -7.322616    -7.322611    -7.322540    -7.322520    -7.322515    -1.312710    -0.964218    -0.881089

        21.1         22.1         23.1         24.1         25.1         26.1         27.1         28.1         29.1         30.1
     -0.881075    -0.686939    -0.574851    -0.558201    -0.558182    -0.448632    -0.448591    -0.388360    -0.376936    -0.376810

        31.1         32.1         33.1         34.1         35.1
     -0.347710    -0.347695    -0.333831    -0.050492     0.003257


 HOMO     33.1    -0.333831 =      -9.0840eV
 LUMO     34.1    -0.050492 =      -1.3740eV
 LUMO-HOMO         0.283339 =       7.7101eV


 **********************************************************************************************************************************
 DATASETS  * FILE   NREC   LENGTH (MB)   RECORD NAMES
              1      20      337.12       500      610      700      900      950      970     1000      129      960     1100   
                                          VAR    BASINP    GEOM    SYMINP    ZMAT    AOBASIS   BASIS     P2S    ABASIS      S 
                                         1400     1410     1200     1210     1080     1600     1650     1300     1700     1800   
                                           T        V       H0       H01     AOSYM     SMH    MOLCAS    ERIS     OPER     GRID   

              2       5        3.45       700     1000      520     1800     2100   
                                         GEOM     BASIS   MCVARS    GRID      RKS  

 PROGRAMS   *        TOTAL    KS-SCF       INT
 CPU TIMES  *        66.61     20.59     45.29
 REAL TIME  *        68.41 SEC
 DISK USED  *         1.46 GB
 **********************************************************************************************************************************


 PROGRAM * OPT (Geometry optimization)     Authors: F. Eckert and H.-J. Werner


 BFGS update of hessian

 *** Long output written to logfile /scratch/on41/pk8622/Test_Calcs/Molpro/VCI/trichlorofluoromethane_vci.log ***


 Geometry optimization using default procedure for command KS-SCF

 Geometry written to block  1 of record 700

 Making model hessian for cartesian coordinates

 Entering Rational Function Geometry Optimization

 ITER.   ENERGY(OLD)    ENERGY(NEW)      DE          GRADMAX     GRADNORM    GRADRMS     STEPMAX     STEPLEN     STEPRMS   CPU-time
   1 -1518.50936833 -1518.51012263    -0.00075430  0.02749303  0.03703956  0.00411551  0.01854880  0.02657609  0.01188519    266.98
   2 -1518.51012263 -1518.51066826    -0.00054563  0.01767547  0.02491388  0.00276821  0.03651299  0.05272474  0.02357922    536.58
 Freezing grid
   3 -1518.51066826 -1518.51066607     0.00000219  0.00573361  0.00579188  0.00064354  0.00589877  0.00789226  0.00352953    819.13
   4 -1518.51066607 -1518.51066966    -0.00000360  0.00166445  0.00204398  0.00022711  0.00117770  0.00141609  0.00063329   1099.62
   5 -1518.51066966 -1518.51061730     0.00005236  0.00134663  0.00162067  0.00018007  0.00441066  0.00514249  0.00229979   1375.81
   6 -1518.51061730 -1518.49754976     0.01306754  0.00099654  0.00116013  0.00012890  0.26162198  0.30000000  0.13416408   1650.41
   7 -1518.49754976 -1518.51034062    -0.01279086  0.08447872  0.09980127  0.01108903  0.24815778  0.30000000  0.13416408   1933.26
   8 -1518.51034062 -1518.51059587    -0.00025524  0.00712958  0.01052303  0.00116923  0.01704557  0.02455765  0.01098252   2204.59
   9 -1518.51059587 -1518.48945049     0.02114538  0.00393621  0.00509114  0.00056568  0.25606084  0.30000000  0.13416408   2479.36
  10 -1518.48945049 -1518.50654700    -0.01709651  0.15293273  0.19258283  0.02139809  0.21948089  0.30000000  0.13416408   2763.17
  11 -1518.50654700 -1518.50452729     0.00201971  0.05446916  0.06098233  0.00677581  0.21285852  0.30000000  0.13416408   3035.81
  12 -1518.50452729 -1518.51004604    -0.00551875  0.04229645  0.05308818  0.00589869  0.15346815  0.20168665  0.09019701   3300.80
  13 -1518.51004604 -1518.51043396    -0.00038792  0.01064670  0.01437123  0.00159680  0.05143271  0.06066496  0.02713019   3571.04
  14 -1518.51043396 -1518.51054981    -0.00011585  0.00522426  0.00960594  0.00106733  0.02573976  0.02894250  0.01294348   3842.24
  15 -1518.51054981 -1518.51056332    -0.00001351  0.00390268  0.00488852  0.00054317  0.02036762  0.02751921  0.01230696   4115.17
  16 -1518.51056332 -1518.51042272     0.00014059  0.00232867  0.00296418  0.00032935  0.03631645  0.04056928  0.01814313   4385.64
  17 -1518.51042272 -1518.51056711    -0.00014438  0.00837319  0.00893835  0.00099315  0.01863594  0.02156981  0.00964631   4657.49
  18 -1518.51056711 -1518.51064012    -0.00007302  0.00282442  0.00308393  0.00034266  0.01481968  0.01692421  0.00756874   4930.25
  19 -1518.51064012 -1518.51061139     0.00002873  0.00160467  0.00191639  0.00021293  0.02008192  0.02293283  0.01025587   5199.04
  20 -1518.51061139 -1518.51064268    -0.00003129  0.00426770  0.00442987  0.00049221  0.01168115  0.01351552  0.00604432   5468.11
  21 -1518.51064268 -1518.51063256     0.00001012  0.00078889  0.00084522  0.00009391  0.00389460  0.00467929  0.00209264   5740.27
  22 -1518.51063256 -1518.51063034     0.00000222  0.00037160  0.00055133  0.00006126  0.00178192  0.00202192  0.00090423   6010.42
  23 -1518.51063034 -1518.51062107     0.00000927  0.00014258  0.00028702  0.00003189  0.00045045  0.00069319  0.00031000   6283.25
  24 -1518.51062107 -1518.51059746     0.00002361  0.00014009  0.00021334  0.00002370  0.00077007  0.00127656  0.00057090   6558.63
  25 -1518.51059746 -1518.51058755     0.00000992  0.00018212  0.00027497  0.00003055  0.00439282  0.00499172  0.00223237   6833.05
  26 -1518.51058755 -1518.50306298     0.00752457  0.00111877  0.00124984  0.00013887  0.18647162  0.30000000  0.13416408   7105.97
  27 -1518.50306298 -1518.49766257     0.00540041  0.03162607  0.06272724  0.00696969  0.17768661  0.30000000  0.13416408   7379.84
  28 -1518.49766257 -1518.50298056    -0.00531800  0.03687965  0.07234257  0.00803806  0.19391871  0.30000000  0.13416408   7654.11
  29 -1518.50298056 -1518.49369569     0.00928487  0.02826193  0.04979882  0.00553320  0.17547821  0.30000000  0.13416408   7927.23
  30 -1518.49369569 -1518.49965584    -0.00596015  0.05142485  0.08959703  0.00995523  0.24429260  0.30000000  0.13416408   8204.94
  31 -1518.49965584 -1518.50635072    -0.00669487  0.03177825  0.06124626  0.00680514  0.16502052  0.30000000  0.13416408   8477.34
  32 -1518.50635072 -1518.50699333    -0.00064262  0.03226741  0.04859562  0.00539951  0.18775075  0.30000000  0.13416408   8750.84
  33 -1518.50699333 -1518.50136335     0.00562998  0.02998809  0.04180826  0.00464536  0.23580739  0.30000000  0.13416408   9025.68
  34 -1518.50136335 -1518.49361447     0.00774888  0.06313860  0.08284922  0.00920547  0.19143214  0.30000000  0.13416408   9307.81
  35 -1518.49361447 -1518.50392227    -0.01030780  0.08705604  0.11587469  0.01287497  0.19529428  0.30000000  0.13416408   9589.59
  36 -1518.50392227 -1518.50678785    -0.00286558  0.05535606  0.06775860  0.00752873  0.21028634  0.30000000  0.13416408   9863.60
  37 -1518.50678785 -1518.51029437    -0.00350652  0.03831273  0.05269130  0.00585459  0.12375832  0.16649634  0.07445943  10133.75
  38 -1518.51029437 -1518.51028101     0.00001336  0.01032613  0.01611297  0.00179033  0.04046494  0.05894951  0.02636302  10407.37
  39 -1518.51028101 -1518.50037176     0.00990925  0.01630351  0.01882977  0.00209220  0.16934744  0.30000000  0.13416408  10682.04
  40 -1518.50037176 -1518.50260827    -0.00223652  0.06144395  0.08413266  0.00934807  0.18805920  0.30000000  0.13416408  10961.98
  41 -1518.50260827 -1518.50693142    -0.00432315  0.03923709  0.05750121  0.00638902  0.21613045  0.30000000  0.13416408  11233.93
  42 -1518.50693142 -1518.50481112     0.00212030  0.03612590  0.04680507  0.00520056  0.17259689  0.30000000  0.13416408  11508.63
  43 -1518.50481112 -1518.50655852    -0.00174740  0.05477701  0.07227085  0.00803009  0.21630408  0.30000000  0.13416408  11781.50
  44 -1518.50655852 -1518.50644634     0.00011218  0.04690089  0.05217197  0.00579689  0.26119727  0.30000000  0.13416408  12058.25
  45 -1518.50644634 -1518.51031435    -0.00386802  0.03383784  0.04694177  0.00521575  0.16183908  0.19042427  0.08516032  12325.74
  46 -1518.51031435 -1518.51047811    -0.00016375  0.01015707  0.01511041  0.00167893  0.01985925  0.03214258  0.01437460  12597.08
  47 -1518.51047811 -1518.51053687    -0.00005876  0.00394296  0.00719125  0.00079903  0.04707705  0.06343554  0.02836924  12868.66
  48 -1518.51053687 -1518.51056784    -0.00003096  0.00661020  0.00735052  0.00081672  0.04048053  0.05113461  0.02286809  13140.87
  49 -1518.51056784 -1518.50109045     0.00947738  0.00467988  0.00680541  0.00075616  0.27118976  0.30000000  0.13416408  13411.53
  50 -1518.50109045 -1518.51050203    -0.00941157  0.06393773  0.06472435  0.00719159  0.24541518  0.25802926  0.11539419  13675.19
  51 -1518.51050203 -1518.51063949    -0.00013747  0.00651833  0.00718250  0.00079806  0.01950925  0.02261545  0.01011394  13947.59
  52 -1518.51063949 -1518.49615253     0.01448696  0.00168285  0.00233151  0.00025906  0.27331610  0.30000000  0.13416408  14219.92
  53 -1518.49615253 -1518.51049885    -0.01434632  0.08387607  0.10934938  0.01214993  0.20881185  0.27042891  0.12093949  14503.87
  54 -1518.51049885 -1518.51062025    -0.00012140  0.00668903  0.00768878  0.00085431  0.02110795  0.02399542  0.01073108  14776.06
  55 -1518.51062025 -1518.51065444    -0.00003419  0.00098769  0.00170688  0.00018965  0.00306168  0.00409732  0.00183238  15049.26
  56 -1518.51065444 -1518.51059996     0.00005448  0.00061628  0.00099289  0.00011032  0.00280901  0.00392727  0.00175633  15325.37
  57 -1518.51059996 -1518.50095309     0.00964687  0.00053141  0.00103218  0.00011469  0.26143622  0.30000000  0.13416408  15600.31
  58 -1518.50095309 -1518.51056798    -0.00961489  0.06291694  0.06340737  0.00704526  0.27728963  0.30000000  0.13416408  15863.11
  59 -1518.51056798 -1518.51054816     0.00001982  0.00235595  0.00323260  0.00035918  0.00613985  0.00659642  0.00295001  16138.62
  60 -1518.51054816 -1518.51054443     0.00000373  0.00084441  0.00129739  0.00014415  0.00397403  0.00591330  0.00264451  16409.45
  61 -1518.51054443 -1518.51054695    -0.00000252  0.00139009  0.00156237  0.00017360  0.00568635  0.00717160  0.00320724  16682.21
  62 -1518.51054695 -1518.51054708    -0.00000013  0.00032183  0.00055865  0.00006207  0.00199430  0.00206594  0.00092391  16953.08
  63 -1518.51054708 -1518.51054658     0.00000050  0.00016772  0.00023160  0.00002573  0.00062297  0.00071543  0.00031995  17224.09

 END OF GEOMETRY OPTIMIZATION.

 Current geometry (xyz format, in Angstrom)

    5
 KS-SCF000/DEF2-TZVP  ENERGY=-1518.51054658
 C          0.0001089736       -0.2558025083        0.0006495495
 Cl         1.4760743475        0.3142245316        0.7902940889
 F         -0.0006394210       -1.5750080299       -0.0003541590
 Cl        -0.0537864943        0.3145941309       -1.6740034267
 Cl        -1.4219778546        0.3146571068        0.8836788496

 **********************************************************************************************************************************

 Geometry written to block  1 of record 700


 **********************************************************************************************************************************
 DATASETS  * FILE   NREC   LENGTH (MB)   RECORD NAMES
              1      20      391.96       500      610      700      900      950      970     1000      129      960     1100   
                                          VAR    BASINP    GEOM    SYMINP    ZMAT    AOBASIS   BASIS     P2S    ABASIS      S 
                                         1400     1410     1200     1210     1080     1600     1650     1300     1700     1800   
                                           T        V       H0       H01     AOSYM     SMH    MOLCAS    ERIS     OPER     GRID   

              2       5        3.45       700     1000      520     1800     2100   
                                         GEOM     BASIS   MCVARS    GRID      RKS  

 PROGRAMS   *        TOTAL      OPTG    KS-SCF       INT
 CPU TIMES  *     17290.75  17224.09     20.59     45.29
 REAL TIME  *     17407.83 SEC
 DISK USED  *         1.67 GB
 **********************************************************************************************************************************


 PROGRAM * HESSIAN

 Computing numerical hessian using default procedure for command KS-SCF

 Using AUTO symmetry option

 Running default procedure: KS-SCF000
 

 Recomputing wavefunction at reference geometry

 Numerically approximating hessian using central gradient differences

 Task list generated. Total number of displacements:     30

 Waited for other processes for  45.41 seconds
   19 tasks completed, CPU=23m 20s Elapsed=23m 20s
 Tasks on processor    0 finished.  CPU=   2210.27 sec, Elapsed=   2211.11 sec. All tasks on all processors finished.

 KS-SCF hessian saved to record  5300.2

 PROGRAM * FREQUENCIES (Calculation of harmonic vibrational spectra for KS-SCF)


 Permanent Dipole Moment [debye]
   1-  3    0.000370    0.304915    0.008068

 Dipole Moment Norm    0.3050222 [debye]

 Dipole Moment Derivatives [debye/ang]
                   1             2             3             4             5             6             7             8
         1     8.6017024     0.0035871     0.0006644    -3.1957322    -0.7200146    -1.3320349    -1.6801040     0.0006776
         2     0.0024641     6.5777655    -0.0047330    -0.6609704    -0.4378213    -0.3525642    -0.0016487    -5.2616804
         3    -0.0053769     0.0049582     8.6069979    -1.3343916    -0.3844010    -1.4174952     0.0002036     0.0022568
                   9            10            11            12            13            14            15
         1     0.0011611    -0.7025156     0.0261764    -0.1068464    -3.0215065     0.6895728     1.4370596
         2     0.0000638     0.0245532    -0.4388699     0.7542172     0.6366314    -0.4387853    -0.3961363
         3    -1.6829024    -0.1020817     0.8079591    -3.9148811     1.4421565    -0.4307832    -1.5882716

 Projecting out rotations and translations

   Low Vibration      Wavenumber
        Nr             [1/cm] 
        1                0.00
        2                0.00
        3                0.00
        4                0.00
        5                0.00
        6                0.00

     Vibration        Wavenumber
        Nr             [1/cm] 
        1              243.43
        2              243.47
        3              348.03
        4              402.49
        5              402.90
        6              539.64
        7              810.93
        8              813.17
        9             1151.72

 FREQUENCIES * CALCULATION OF NORMAL MODES FOR KS-SCF


 Atomic Coordinates

  Nr  Atom  Charge       X              Y              Z

   1   C     6.00    0.000205930   -0.483396683    0.001227471
   2   CL   17.00    2.789376256    0.593798306    1.493439386
   3   F     9.00   -0.001208331   -2.976333821   -0.000669264
   4   CL   17.00   -0.101641743    0.594496748   -3.163408008
   5   CL   17.00   -2.687148700    0.594615755    1.669911008

 Gradient norm at reference geometry: 0.12686D-02

 ?WARNING: GRADIENT NORM NOT ZERO!

 Normal Modes

                              1 A         2 A         3 A         4 A         5 A  
 Wavenumbers [cm-1]          243.43      243.47      348.03      402.49      402.90
 Intensities [km/mol]          0.03        0.03        0.15        0.44        0.43
 Intensities [relative]        0.01        0.01        0.05        0.15        0.15
           CX1              0.02127    -0.03132    -0.00018    -0.00443    -0.01630
           CY1             -0.00002     0.00002     0.09396    -0.00043    -0.00005
           CZ1             -0.03106    -0.02127     0.00026    -0.01616     0.00421
           CLX2            -0.04223    -0.05810     0.06646    -0.05571    -0.04206
           CLY2            -0.00425     0.03998    -0.02974    -0.04155    -0.04491
           CLZ2             0.09267    -0.01879     0.03552    -0.00808    -0.04264
           FX3              0.05124    -0.07536     0.00045     0.03897     0.14822
           FY3              0.00002     0.00011     0.10368    -0.00060    -0.00011
           FZ3             -0.07539    -0.05132     0.00029     0.14819    -0.03898
           CLX4            -0.06178     0.08136    -0.00243     0.00339     0.02600
           CLY4            -0.03247    -0.02372    -0.02938     0.05992    -0.01367
           CLZ4            -0.04700    -0.03839    -0.07561    -0.07600     0.01667
           CLX5             0.06887     0.02843    -0.06421     0.03267    -0.05887
           CLY5             0.03672    -0.01634    -0.02946    -0.01789     0.05865
           CLZ5             0.00595     0.09236     0.03984     0.00911     0.04570

                              6 A         7 A         8 A         9 A  
 Wavenumbers [cm-1]          539.64      810.93      813.17     1151.72
 Intensities [km/mol]          3.18      296.56      296.21      213.39
 Intensities [relative]        1.07      100.00       99.88       71.95
           CX1             -0.00019     0.00587     0.27185     0.00029
           CY1              0.11457    -0.00033    -0.00010     0.23242
           CZ1             -0.00011     0.27189    -0.00590     0.00030
           CLX2            -0.05466    -0.01281    -0.03217    -0.00007
           CLY2            -0.03608    -0.00285    -0.00518    -0.00196
           CLZ2            -0.02915    -0.01663    -0.01173    -0.00003
           FX3              0.00002    -0.00084    -0.03744    -0.00010
           FY3              0.12663     0.00009     0.00030    -0.13599
           FZ3              0.00040    -0.03747     0.00087    -0.00013
           CLX4             0.00198    -0.00111    -0.00977    -0.00000
           CLY4            -0.03589     0.00589     0.00004    -0.00196
           CLZ4             0.06163    -0.03867    -0.00016     0.00000
           CLX5             0.05273     0.01236    -0.03101     0.00002
           CLY5            -0.03615    -0.00298     0.00501    -0.00196
           CLZ5            -0.03265    -0.01764     0.01344    -0.00001


 Normal Modes of low/zero frequencies

                                  1           2           3           4           5
 Wavenumbers [cm-1]            0.00        0.00        0.00        0.00        0.00
 Intensities [km/mol]          0.00        0.00        0.00        0.00        0.00
 Intensities [relative]        0.00        0.00        0.00        0.00        0.00
           CX1             -0.00233     0.00013    -0.00199     0.00420    -0.00092
           CY1              0.00652     0.01216    -0.01132     0.07572     0.03598
           CZ1             -0.00692    -0.03866     0.06778     0.02933    -0.02608
           CLX2            -0.00973    -0.00897     0.02024    -0.01516     0.05062
           CLY2            -0.05198    -0.03668    -0.06718     0.10862    -0.02213
           CLZ2             0.04914     0.01360     0.06654     0.04176    -0.08046
           FX3             -0.06219     0.00277    -0.03765     0.02927    -0.05358
           FY3              0.00654     0.01223    -0.01128     0.07570     0.03601
           FZ3              0.00729    -0.12520     0.04109     0.03744    -0.02478
           CLX4             0.09415     0.01586    -0.00107     0.01143    -0.03925
           CLY4            -0.00910     0.12191     0.02402     0.06440     0.03652
           CLZ4            -0.01534    -0.00179     0.07979     0.02524    -0.02466
           CLX5            -0.01365    -0.00991     0.02106    -0.01618     0.05404
           CLY5             0.08062    -0.04861     0.00923     0.05413     0.09356
           CLZ5            -0.07301    -0.01557     0.09162     0.01048     0.02524

                                  6
 Wavenumbers [cm-1]            0.00
 Intensities [km/mol]          0.00
 Intensities [relative]        0.00
           CX1              0.08746
           CY1             -0.00335
           CZ1             -0.00027
           CLX2             0.08115
           CLY2             0.01272
           CLZ2            -0.00008
           FX3              0.10208
           FY3             -0.00336
           FZ3             -0.00075
           CLX4             0.08111
           CLY4            -0.00334
           CLZ4            -0.00006
           CLX5             0.08115
           CLY5            -0.01944
           CLZ5            -0.00004


 Frequencies dumped to record   5400.2

 Zero point energy:  0.01129008 [H]     2477.89 [1/CM]       29.64 [KJ/MOL]

 Recomputing wavefunction at initial geometry


 **********************************************************************************************************************************
 DATASETS  * FILE   NREC   LENGTH (MB)   RECORD NAMES
              1      20      387.29       500      610      700      900      950      970     1000      129      960     1100   
                                          VAR    BASINP    GEOM    SYMINP    ZMAT    AOBASIS   BASIS     P2S    ABASIS      S 
                                         1400     1410     1200     1210     1080     1600     1650     1300     1700     1800   
                                           T        V       H0       H01     AOSYM     SMH    MOLCAS    ERIS     OPER     GRID   

              2       9        4.32       700     1000      520     1800     2100      701     5300     5450     5400   
                                         GEOM     BASIS   MCVARS    GRID      RKS     GEOM     HESS     NMOD     FREQ   

 PROGRAMS   *        TOTAL      FREQ      OPTG    KS-SCF       INT
 CPU TIMES  *     19553.91   2263.11  17224.09     20.59     45.29
 REAL TIME  *     19685.34 SEC
 DISK USED  *         1.67 GB
 **********************************************************************************************************************************

 Density functional group M06=XC-M06
 Functional: XC-M06(via MFM 1.6)                                               Gradient terms: 1
 Use libxcgrid:  F
 Use grid at  1800.2
 

 Exact exchange will be calculated, factor:  0.2700

 Functional: XC-M06                    Factor:  1.0000
 
  141995 words reserved for DFT integration

 PROGRAM * RKS-SCF (Restricted closed shell Kohn-Sham)     Authors: W. Meyer, H.-J. Werner, P.J. Knowles, 1993

 NUMBER OF ELECTRONS:      33+   33-    SPACE SYMMETRY=1    SPIN SYMMETRY: Singlet 
 CONVERGENCE THRESHOLDS:    1.00E-07 (Density)    1.00E-06 (Energy)
 MAX. NUMBER OF ITERATIONS:       60
 INTERPOLATION TYPE:            DIIS
 INTERPOLATION STEPS:              2 (START)      1 (STEP)
 LEVEL SHIFTS:                  0.00 (CLOSED)  0.00 (OPEN) 



 Use fine grid record 1800.2 for energy threshold  1.0D-06
 Molecular orbitals read from record     2100.2  Type=RKS/CANONICAL (state 1.1)

 Molecular orbital dump at record        2101.2

 ITERATION    DDIFF          GRAD             ENERGY        2-EL.EN.            DIPOLE MOMENTS         DIIS   ORB.
    1      0.000D+00      0.000D+00     -1518.51063301   2034.347952    0.00035    0.11961    0.00277    0    start
    2      0.000D+00      0.625D-07     -1518.51063301   2034.347901    0.00036    0.11960    0.00276    1    diag
    3      0.773D-07      0.101D-06     -1518.51063301   2034.347952    0.00036    0.11961    0.00276    2    diag
    4      0.432D-07      0.849D-08     -1518.51063301   2034.347924    0.00036    0.11960    0.00277    0    orth

 Final occupancy:  33

 !RKS STATE  1.1 Energy             -1518.510633010444
 Nuclear energy                       367.60145534
 One-electron energy                -2829.16291040
 Two-electron energy                 1017.17396220
 SCF exchange energy                  -97.85492439     Factor= 0.2700
 Density functional                   -74.12314014     XC-M06=-74.12314014
 Virial quotient                       -1.00180236
 !RKS STATE  1.1 Dipole moment          0.00035583     0.11960437     0.00276681
 Dipole moment /Debye                   0.00090438     0.30398407     0.00703206

 Orbital energies:

         1.1          2.1          3.1          4.1          5.1          6.1          7.1          8.1          9.1         10.1
   -101.747601  -101.747579  -101.747361   -24.840840   -10.508824    -9.618962    -9.618938    -9.618705    -7.330512    -7.330489

        11.1         12.1         13.1         14.1         15.1         16.1         17.1         18.1         19.1         20.1
     -7.330258    -7.320295    -7.320269    -7.320222    -7.320198    -7.320038    -7.319968    -1.336196    -0.964115    -0.881056

        21.1         22.1         23.1         24.1         25.1         26.1         27.1         28.1         29.1         30.1
     -0.880795    -0.694506    -0.579577    -0.569876    -0.569823    -0.449721    -0.449700    -0.388051    -0.375763    -0.375666

        31.1         32.1         33.1         34.1         35.1
     -0.346219    -0.346143    -0.331988    -0.046243     0.007385


 HOMO     33.1    -0.331988 =      -9.0339eV
 LUMO     34.1    -0.046243 =      -1.2583eV
 LUMO-HOMO         0.285746 =       7.7755eV


 **********************************************************************************************************************************
 DATASETS  * FILE   NREC   LENGTH (MB)   RECORD NAMES
              1      20      387.29       500      610      700      900      950      970     1000      129      960     1100   
                                          VAR    BASINP    GEOM    SYMINP    ZMAT    AOBASIS   BASIS     P2S    ABASIS      S 
                                         1400     1410     1200     1210     1080     1600     1650     1300     1700     1800   
                                           T        V       H0       H01     AOSYM     SMH    MOLCAS    ERIS     OPER     GRID   

              2      10        7.41       700     1000      520     1800     2100      701     5300     5450     5400     2101   
                                         GEOM     BASIS   MCVARS    GRID      RKS     GEOM     HESS     NMOD     FREQ      RKS  

 PROGRAMS   *        TOTAL    KS-SCF      FREQ      OPTG    KS-SCF       INT
 CPU TIMES  *     19561.10      7.13   2263.11  17224.09     20.59     45.29
 REAL TIME  *     19692.77 SEC
 DISK USED  *         1.67 GB
 **********************************************************************************************************************************


 PROGRAM * SURF (Surface generation)   Authors: G. Rauhut 2004, T. Hrenar 2005, M. Neff 2012, D. Oschetzki 2013

 Freezing grid

 Reference geometry in SURF calculation

   1  C     6.00     0.001227471    0.000205930   -0.483396683
   2  CL   17.00     1.493439386    2.789376256    0.593798306
   3  F     9.00    -0.000669264   -0.001208331   -2.976333821
   4  CL   17.00    -3.163408008   -0.101641743    0.594496748
   5  CL   17.00     1.669911008   -2.687148700    0.594615755


 The phase of the following normal coordinates was changed:
  1  2

 Information about detected symmetry elements:

 Detected point group: C1 

 Starting mppx-calculation of energy surfaces:

 Calculating 1D potential

 1D:   9  Points:   6 Conv: 0.00940744 0.00939757
 1D:   8  Points:   6 Conv: 0.00665367 0.00664648
 1D:   7  Points:   6 Conv: 0.00716294 0.00716027
 1D:   6  Points:   6 Conv: 0.00414211 0.00414122
 1D:   5  Points:   6 Conv: 0.00280620 0.00280637
 1D:   4  Points:   6 Conv: 0.00280686 0.00280704
 1D:   3  Points:   6 Conv: 0.00251729 0.00251715
 1D:   2  Points:   6 Conv: 0.00155853 0.00155846
 1D:   1  Points:   6 Conv: 0.00158104 0.00158109

 The determined shift and scalnm parameters are:

 scalnm,mode= 1,sfac=1.100,shift= 0
 scalnm,mode= 2,sfac=1.100,shift= 0
 scalnm,mode= 3,sfac=1.100,shift= 0
 scalnm,mode= 4,sfac=1.050,shift= 0
 scalnm,mode= 5,sfac=1.050,shift= 0
 scalnm,mode= 6,sfac=1.050,shift= 0
 scalnm,mode= 7,sfac=1.050,shift= 1
 scalnm,mode= 8,sfac=1.000,shift= 0
 scalnm,mode= 9,sfac=1.000,shift= 2

 Harmonic and 1D-anharmonic vibrational frequencies

   Mode             Harmonic     Diagonal     IR Int

   9 A   (A  )       1151.72      1126.96     208.50
   8 A   (A  )        813.17       818.49     298.30
   7 A   (A  )        810.93       811.18     297.56
   6 A   (A  )        539.64       538.65       3.19
   5 A   (A  )        402.90       402.77       0.43
   4 A   (A  )        402.49       402.74       0.44
   3 A   (A  )        348.03       346.75       0.15
   2 A   (A  )        243.47       242.11       0.03
   1 A   (A  )        243.43       244.14       0.04

 Calculating 2D coupling potential

 2D:   9   5  Points:  16 Conv: 0.00007111 0.00009029
 2D:   9   4  Points:  16 Conv: 0.00007195 0.00009166
 2D:   9   2  Points:  16 Conv: 0.00001879 0.00002785
 2D:   9   1  Points:  16 Conv: 0.00001895 0.00002774
 2D:   8   2  Points:  16 Conv: 0.00002838 0.00005330
 2D:   8   1  Points:  16 Conv: 0.00003081 0.00004295
 2D:   7   2  Points:  16 Conv: 0.00002217 0.00004296
 2D:   7   1  Points:  16 Conv: 0.00002521 0.00006466
 2D:   6   4  Points:  16 Conv: 0.00026423 0.00026943
 2D:   6   2  Points:  16 Conv: 0.00001042 0.00001526
 2D:   6   1  Points:  16 Conv: 0.00001230 0.00001224
 2D:   5   4  Points:  16 Conv: 0.00013562 0.00013685
 2D:   5   3  Points:  16 Conv: 0.00004387 0.00004362
 2D:   5   2  Points:  16 Conv: 0.00002256 0.00002301
 2D:   5   1  Points:  16 Conv: 0.00008907 0.00008944
 2D:   4   3  Points:  16 Conv: 0.00004255 0.00004249
 2D:   4   2  Points:  16 Conv: 0.00001547 0.00001585
 2D:   4   1  Points:  16 Conv: 0.00008915 0.00008909
 2D:   3   2  Points:  16 Conv: 0.00008353 0.00008356
 2D:   3   1  Points:  16 Conv: 0.00008558 0.00008520
 2D:   2   1  Points:  16 Conv: 0.00011167 0.00011319
 2D:   9   8  Points:  36 Conv: 0.00066619 0.00066466
 2D:   9   7  Points:  36 Conv: 0.00073851 0.00073475
 2D:   9   6  Points:  36 Conv: 0.00028300 0.00028199
 2D:   9   3  Points:  36 Conv: 0.00017105 0.00017083
 2D:   8   7  Points:  36 Conv: 0.00133571 0.00133624
 2D:   8   6  Points:  36 Conv: 0.00075406 0.00074908
 2D:   8   5  Points:  36 Conv: 0.00010056 0.00009979
 2D:   8   4  Points:  36 Conv: 0.00031367 0.00030949
 2D:   8   3  Points:  36 Conv: 0.00029274 0.00028894
 2D:   7   6  Points:  36 Conv: 0.00079613 0.00078911
 2D:   7   5  Points:  36 Conv: 0.00011469 0.00011428
 2D:   7   4  Points:  36 Conv: 0.00035037 0.00034764
 2D:   7   3  Points:  36 Conv: 0.00030602 0.00030111
 2D:   6   5  Points:  36 Conv: 0.00026632 0.00026534
 2D:   6   3  Points:  36 Conv: 0.00017251 0.00017178

 Calculating 3D coupling potential

    34 3D surfaces (40.5 %) will be neglected due to prescreening

 3D:   9   8   7  Points:   64 Conv: 0.00016550 0.00017435
 3D:   9   8   6  Points:   64 Conv: 0.00009433 0.00009279
 3D:   9   8   4  Points:   64 Conv: 0.00005894 0.00005400
 3D:   9   8   3  Points:   64 Conv: 0.00005737 0.00005955
 3D:   9   7   6  Points:   64 Conv: 0.00010508 0.00009570
 3D:   9   7   5  Points:   64 Conv: 0.00005283 0.00004445
 3D:   9   7   3  Points:   64 Conv: 0.00006135 0.00005559
 3D:   9   6   5  Points:   64 Conv: 0.00001468 0.00001653
 3D:   9   6   4  Points:   64 Conv: 0.00001555 0.00001654
 3D:   9   6   3  Points:   64 Conv: 0.00024532 0.00024170
 3D:   8   7   4  Points:   64 Conv: 0.00011683 0.00012666
 3D:   8   7   3  Points:   64 Conv: 0.00006364 0.00005670
 3D:   8   7   2  Points:   64 Conv: 0.00003761 0.00003501
 3D:   8   7   1  Points:   64 Conv: 0.00004255 0.00003900
 3D:   8   6   4  Points:   64 Conv: 0.00011949 0.00012611
 3D:   8   6   3  Points:   64 Conv: 0.00007424 0.00007566
 3D:   8   5   4  Points:   64 Conv: 0.00014562 0.00015617
 3D:   8   5   3  Points:   64 Conv: 0.00014299 0.00015004
 3D:   8   4   3  Points:   64 Conv: 0.00003432 0.00003580
 3D:   8   4   1  Points:   64 Conv: 0.00002453 0.00002439
 3D:   8   3   2  Points:   64 Conv: 0.00005191 0.00004471
 3D:   8   3   1  Points:   64 Conv: 0.00003804 0.00003190
 3D:   7   6   5  Points:   64 Conv: 0.00012254 0.00012986
 3D:   7   6   3  Points:   64 Conv: 0.00007622 0.00007351
 3D:   7   5   4  Points:   64 Conv: 0.00006553 0.00007136
 3D:   7   5   3  Points:   64 Conv: 0.00003390 0.00003580
 3D:   7   4   3  Points:   64 Conv: 0.00014293 0.00015258
 3D:   7   4   1  Points:   64 Conv: 0.00001551 0.00001660
 3D:   7   3   2  Points:   64 Conv: 0.00004270 0.00004126
 3D:   7   3   1  Points:   64 Conv: 0.00005520 0.00005360
 3D:   6   5   4  Points:   64 Conv: 0.00002653 0.00002529
 3D:   6   5   3  Points:   64 Conv: 0.00000258 0.00000243
 3D:   6   5   1  Points:   64 Conv: 0.00001265 0.00001273
 3D:   6   4   3  Points:   64 Conv: 0.00000330 0.00000183
 3D:   6   4   1  Points:   64 Conv: 0.00001096 0.00001127
 3D:   6   3   2  Points:   64 Conv: 0.00000554 0.00000461
 3D:   6   3   1  Points:   64 Conv: 0.00000613 0.00000422
 3D:   5   4   3  Points:   64 Conv: 0.00001236 0.00001239
 3D:   5   4   1  Points:   64 Conv: 0.00002478 0.00002451
 3D:   5   3   1  Points:   64 Conv: 0.00007111 0.00007345
 3D:   5   2   1  Points:   64 Conv: 0.00001825 0.00001728
 3D:   4   3   1  Points:   64 Conv: 0.00006484 0.00006543
 3D:   4   2   1  Points:   64 Conv: 0.00003128 0.00002924
 3D:   3   2   1  Points:   64 Conv: 0.00001129 0.00001104
 3D:   9   8   5  Points:  216 Conv: 0.00021450 0.00021562
 3D:   9   7   4  Points:  216 Conv: 0.00021950 0.00022062
 3D:   8   7   6  Points:  216 Conv: 0.00031383 0.00031303
 3D:   8   7   5  Points:  216 Conv: 0.00056278 0.00056290
 3D:   8   6   5  Points:  216 Conv: 0.00049922 0.00049935
 3D:   7   6   4  Points:  216 Conv: 0.00050289 0.00050236

 Grid calculation completed

 Formal number of grid points:    353424
 Actual number of grid points:      5222 Time (sec):      87566.9
 Number of 1D grid points:           234 Time (sec):       4320.3
 Number of 2D grid points:           876 Time (sec):      14470.5
 Number of 3D grid points:          4112 Time (sec):      68776.1

 CPU-Time for SURF calculation:      87637.1 sec.


 **********************************************************************************************************************************
 DATASETS  * FILE   NREC   LENGTH (MB)   RECORD NAMES
              1      20      405.59       500      610      700      900      950      970     1000      129      960     1100   
                                          VAR    BASINP    GEOM    SYMINP    ZMAT    AOBASIS   BASIS     P2S    ABASIS      S 
                                         1400     1410     1200     1210     1080     1600     1650     1300     1700     1800   
                                           T        V       H0       H01     AOSYM     SMH    MOLCAS    ERIS     OPER     GRID   

              2      13       83.11       700     1000      520     1800     2100      701     5300     5450     5400     2101   
                                         GEOM     BASIS   MCVARS    GRID      RKS     GEOM     HESS     NMOD     FREQ      RKS  
                                         5600     5650     5550   
                                         SURF    DIPOLE   VIBINFO    

 PROGRAMS   *        TOTAL      SURF       INT    KS-SCF       INT    KS-SCF       INT    KS-SCF       INT    KS-SCF       INT
 CPU TIMES  *    107198.30     91.91     46.00     21.51     46.05     19.65     46.95     21.37     46.89     19.55     45.46
 REAL TIME  *    110277.83 SEC
 DISK USED  *         1.68 GB
 **********************************************************************************************************************************


 PROGRAM * POLY (Transformation of PES grid representation to an analytic representation)   Authors: G. Rauhut 2008, M. Neff 2010, B. Ziegler 2019
 
 Reading potential information from:      5600.2
 Reading dipole information from:         5650.2
 
 Watson correction term has been added to the potential.

 Time to compute the number of basis functions:    0.0 sec
 Number of basis functions:  7

        dim  chi_av       chi_max      time in sec      Surface

 Energy 1D   0.6364E-31   0.3144E-30     0.0            1
        2D   0.1287E-32   0.2011E-31     0.0            1  3
        3D   0.2502E-33   0.5127E-32     0.0            5  3  2

 Dipole 1D   0.1692E-28   0.2286E-27     0.0            2
        2D   0.1338E-30   0.6085E-29     0.1            1  4
        3D   0.2061E-32   0.7000E-31     0.2            3  2  1
 
 Harmonic frequencies obtained from polynomial fit

   Mode        Ref.         Fit

   9 A       1151.72     1150.82
   8 A        813.17      812.46
   7 A        810.93      810.29
   6 A        539.64      538.71
   5 A        402.90      402.52
   4 A        402.49      402.45
   3 A        348.03      346.67
   2 A        243.47      241.88
   1 A        243.43      244.06
 

 CPU-Time for POLY calculation:         12.6 sec.


 **********************************************************************************************************************************
 DATASETS  * FILE   NREC   LENGTH (MB)   RECORD NAMES
              1      20      405.59       500      610      700      900      950      970     1000      129      960     1100   
                                          VAR    BASINP    GEOM    SYMINP    ZMAT    AOBASIS   BASIS     P2S    ABASIS      S 
                                         1400     1410     1200     1210     1080     1600     1650     1300     1700     1800   
                                           T        V       H0       H01     AOSYM     SMH    MOLCAS    ERIS     OPER     GRID   

              2      15       84.29       700     1000      520     1800     2100      701     5300     5450     5400     2101   
                                         GEOM     BASIS   MCVARS    GRID      RKS     GEOM     HESS     NMOD     FREQ      RKS  
                                         5600     5650     5550     5750     5770   
                                         SURF    DIPOLE   VIBINFO   POLY      MU  

 PROGRAMS   *        TOTAL      POLY    KS-SCF       INT    KS-SCF       INT    KS-SCF       INT    KS-SCF       INT    KS-SCF
 CPU TIMES  *    107210.92     12.57     19.76     46.00     21.51     46.05     19.65     46.95     21.37     46.89     19.55
 REAL TIME  *    110290.48 SEC
 DISK USED  *         1.68 GB
 **********************************************************************************************************************************


 PROGRAM * VSCF (Vibrational self-consistent field)   Authors: G. Rauhut 2004, M. Neff 2009, D. Oschetzki 2013
 
 Reading potential information from:      5600.2    5750.2
 Reading dipole information from:         5650.2    5750.2


 Non-zero Coriolis zeta constants

   Modes        a             b             c

   9  8     -0.859924     -0.018813      0.001108
   9  7     -0.018640      0.860135     -0.000995
   9  6      0.000805     -0.001493      0.000001
   9  5      0.423416      0.111102     -0.000588
   9  4      0.111736     -0.422852      0.000235
   9  3      0.001872     -0.000136     -0.000002
   9  2      0.103926     -0.070915      0.000020
   9  1     -0.070698     -0.104605     -0.000157
   8  7     -0.001198     -0.000426     -0.954033
   8  6      0.356582      0.007665      0.000698
   8  5     -0.006724     -0.030538     -0.041144
   8  4      0.028683     -0.004508      0.172107
   8  3      0.331490      0.006876     -0.000695
   8  2      0.034392     -0.043207     -0.136518
   8  1      0.043935      0.035378     -0.191708
   7  6      0.007630     -0.356461     -0.000635
   7  5      0.029987     -0.005473     -0.172207
   7  4      0.005618      0.031319     -0.041523
   7  3      0.007132     -0.331220     -0.000906
   7  2      0.043639      0.034559      0.191468
   7  1     -0.034719      0.043184     -0.136648
   6  5     -0.235963     -0.062244      0.000374
   6  4     -0.061812      0.236394      0.000029
   6  3     -0.000900     -0.000557      0.000004
   6  2     -0.180919      0.124358      0.002011
   6  1      0.122668      0.181952     -0.001030
   5  4     -0.001988     -0.001338     -0.236298
   5  3      0.586157      0.153956     -0.001243
   5  2      0.157280     -0.337031     -0.571487
   5  1      0.335758      0.156789     -0.497616
   4  3      0.154049     -0.585752      0.000994
   4  2      0.337430      0.157087      0.497559
   4  1     -0.158286      0.335105     -0.571670
   3  2     -0.367838      0.250855      0.000001
   3  1      0.250930      0.369460     -0.001731
   2  1     -0.000211      0.000021      0.474178
 
 Starting VSCF Iterations

      Mode  Iter     Status    E(SCF)       E(MP1)    E(TOTAL)
        0     7       1.00     2461.20       10.36     2471.56
       9^1    7       1.00     3581.00       15.32     3596.32
       8^1    7       1.00     3241.46       38.44     3279.90
       7^1    7       1.00     3252.30       26.51     3278.81
       6^1    7       1.00     2997.99       11.93     3009.92
       5^1    7       1.00     2855.81       16.34     2872.15
       4^1    7       1.00     2856.55       15.65     2872.20
       3^1    7       1.00     2805.09       12.47     2817.56
       2^1    7       1.00     2700.43       12.32     2712.74
       1^1    7       1.00     2700.58       13.38     2713.96
       9^2    7       1.00     4676.46       21.70     4698.15
       8^2    9       1.00     3990.77       90.30     4081.07
       7^2    8       1.00     4024.05       55.94     4079.98
       6^2    7       1.00     3533.56       14.02     3547.58
       5^2    7       1.00     3247.96       24.40     3272.36
       4^2    7       1.00     3249.60       22.88     3272.47
       3^2    7       1.00     3149.10       14.71     3163.81
       2^2    7       1.00     2939.86       14.56     2954.42
       1^2    7       1.00     2939.40       17.19     2956.59
  8^1  9^1    8       1.00     4362.52       43.60     4406.12
  7^1  9^1    7       1.00     4373.63       31.46     4405.09
  6^1  9^1    7       1.00     4115.29       18.07     4133.36
  5^1  9^1    7       1.00     3968.07       25.53     3993.60
  4^1  9^1    7       1.00     3968.78       24.85     3993.63
  3^1  9^1    7       1.00     3926.60       16.73     3943.33
  2^1  9^1    7       1.00     3820.28       17.20     3837.47
  1^1  9^1    7       1.00     3820.35       18.30     3838.66
  7^1  8^1    9       1.00     4034.47       56.45     4090.92
  6^1  8^1    8       1.00     3778.39       40.41     3818.80
  5^1  8^1    8       1.00     3632.84       47.39     3680.23
  4^1  8^1    8       1.00     3635.92       44.71     3680.63
  3^1  8^1    7       1.00     3581.41       42.88     3624.29
  2^1  8^1    7       1.00     3478.41       41.80     3520.21
  1^1  8^1    7       1.00     3477.56       43.34     3520.91
  6^1  7^1    7       1.00     3789.36       28.33     3817.69
  5^1  7^1    7       1.00     3645.43       33.94     3679.37
  4^1  7^1    7       1.00     3645.61       33.65     3679.27
  3^1  7^1    7       1.00     3592.37       30.89     3623.25
  2^1  7^1    7       1.00     3488.92       30.02     3518.94
  1^1  7^1    7       1.00     3489.13       31.07     3520.20
  5^1  6^1    7       1.00     3392.53       18.04     3410.57
  4^1  6^1    7       1.00     3393.54       17.15     3410.69
  3^1  6^1    7       1.00     3341.43       14.31     3355.74
  2^1  6^1    7       1.00     3236.22       14.49     3250.71
  1^1  6^1    7       1.00     3236.31       15.59     3251.90
  4^1  5^1    7       1.00     3250.94       22.00     3272.94
  3^1  5^1    7       1.00     3199.46       18.77     3218.23
  2^1  5^1    7       1.00     3094.88       18.41     3113.29
  1^1  5^1    7       1.00     3094.99       19.49     3114.48
  3^1  4^1    7       1.00     3200.20       18.09     3218.29
  2^1  4^1    7       1.00     3095.45       17.87     3113.32
  1^1  4^1    7       1.00     3095.57       18.93     3114.50
  2^1  3^1    7       1.00     3044.62       14.35     3058.97
  1^1  3^1    7       1.00     3044.54       15.54     3060.08
  1^1  2^1    7       1.00     2940.69       14.98     2955.66

 Results of VSCF calculation: (Frequencies in cm-1)

 Fundamentals

      Mode        Harmonic    Diagonal       VSCF      E(abs)     IR Intens
       9^1 A       1151.72     1126.98     1124.77     3596.32      209.57
       8^1 A        813.17      818.49      808.34     3279.90      294.43
       7^1 A        810.93      811.18      807.25     3278.81      295.78
       6^1 A        539.64      538.67      538.36     3009.92        3.11
       5^1 A        402.90      402.80      400.59     2872.15        0.45
       4^1 A        402.49      402.78      400.64     2872.20        0.46
       3^1 A        348.03      346.77      346.01     2817.56        0.15
       2^1 A        243.47      242.17      241.19     2712.74        0.03
       1^1 A        243.43      244.19      242.40     2713.96        0.04

 Overtones

      Mode        Harmonic    Diagonal       VSCF      E(abs)     IR Intens
       9^2 A       2303.44     2231.48     2226.59     4698.15        4.03
       8^2 A       1626.34     1642.46     1609.51     4081.07        0.03
       7^2 A       1621.85     1623.08     1608.43     4079.98        0.62
       6^2 A       1079.28     1077.10     1076.02     3547.58        0.01
       5^2 A        805.79      806.31      800.80     3272.36        0.00
       4^2 A        804.98      806.19      800.91     3272.47        0.00
       3^2 A        696.07      693.86      692.25     3163.81        0.00
       2^2 A        486.94      484.99      482.86     2954.42        0.00
       1^2 A        486.85      489.00      485.03     2956.59        0.00

 Combination bands

      Mode        Harmonic    Diagonal       VSCF      E(abs)     IR Intens
  8^1  9^1 A       1964.89     1945.47     1934.56     4406.12        0.17
  7^1  9^1 A       1962.65     1938.15     1933.53     4405.09        0.17
  6^1  9^1 A       1691.36     1665.64     1661.80     4133.36        0.00
  5^1  9^1 A       1554.62     1529.78     1522.04     3993.60        0.02
  4^1  9^1 A       1554.21     1529.76     1522.07     3993.63        0.02
  3^1  9^1 A       1499.76     1473.75     1471.77     3943.33        0.01
  2^1  9^1 A       1395.19     1369.15     1365.92     3837.47        0.05
  1^1  9^1 A       1395.15     1371.17     1367.10     3838.66        0.05
  7^1  8^1 A       1624.10     1629.67     1619.37     4090.92        2.49
  6^1  8^1 A       1352.81     1357.16     1347.24     3818.80        1.47
  5^1  8^1 A       1216.07     1221.29     1208.67     3680.23        0.10
  4^1  8^1 A       1215.66     1221.27     1209.07     3680.63        0.40
  3^1  8^1 A       1161.20     1165.26     1152.73     3624.29        0.26
  2^1  8^1 A       1056.64     1060.66     1048.65     3520.21        0.16
  1^1  8^1 A       1056.60     1062.68     1049.35     3520.91        0.11
  6^1  7^1 A       1350.57     1349.84     1346.13     3817.69        1.49
  5^1  7^1 A       1213.82     1213.98     1207.82     3679.37        0.03
  4^1  7^1 A       1213.42     1213.96     1207.71     3679.27        0.52
  3^1  7^1 A       1158.96     1157.95     1151.70     3623.25        0.21
  2^1  7^1 A       1054.40     1053.35     1047.38     3518.94        0.13
  1^1  7^1 A       1054.35     1055.37     1048.64     3520.20        0.14
  5^1  6^1 A        942.54      941.47      939.01     3410.57        0.00
  4^1  6^1 A        942.13      941.45      939.13     3410.69        0.00
  3^1  6^1 A        887.67      885.44      884.18     3355.74        0.03
  2^1  6^1 A        783.11      780.84      779.15     3250.71        0.01
  1^1  6^1 A        783.07      782.86      780.34     3251.90        0.01
  4^1  5^1 A        805.39      805.58      801.38     3272.94        0.00
  3^1  5^1 A        750.93      749.57      746.67     3218.23        0.00
  2^1  5^1 A        646.37      644.98      641.74     3113.29        0.00
  1^1  5^1 A        646.32      647.00      642.92     3114.48        0.00
  3^1  4^1 A        750.52      749.55      746.73     3218.29        0.00
  2^1  4^1 A        645.96      644.96      641.76     3113.32        0.00
  1^1  4^1 A        645.92      646.98      642.95     3114.50        0.00
  2^1  3^1 A        591.50      588.95      587.41     3058.97        0.00
  1^1  3^1 A        591.46      590.97      588.52     3060.08        0.00
  1^1  2^1 A        486.90      486.37      484.11     2955.66        0.00

 Zero point vibrational energy (cm-1)

             ZPVE     Sum 0->1
 Harm.     2477.89     2477.89
 Diag.     2474.39     2467.02
 VSCF      2471.56     2454.78


 VSCF/ZPVE vibrationally averaged geometry (Bohr)

    1  C     6.00     0.001151641    0.000497810   -0.481418249
    2  CL   17.00     1.496843459    2.797099517    0.594558867
    3  F     9.00    -0.000426265   -0.000350461   -2.983860124
    4  CL   17.00    -3.169927934   -0.102547651    0.595740049
    5  CL   17.00     1.672920862   -2.694532292    0.596021972


 VSCF/ZPVE vibrationally averaged geometric parameters

    Ra parameters

                  Bohr          Angstrom      Delta (Ang.)
     1- 2     3.349000131     1.772214549     0.003898086
     1- 3     2.502442516     1.324235551     0.005029436
     1- 4     3.350616964     1.773070140     0.003121090
     1- 5     3.349459211     1.772457483     0.003984734

    Rg parameters

                  Bohr          Angstrom      Delta (Ang.)
     1- 2     3.352015103     1.773810003     0.005493541
     1- 3     2.507291140     1.326801332     0.007595217
     1- 4     3.353631061     1.774665132     0.004716082
     1- 5     3.352476914     1.774054383     0.005581634


 Rotational Constants

         Vibrationally averaged           Reference geometry

           cm-1         Ghz               cm-1         Ghz
   A      0.08176      2.45125           0.08212      2.46180
   B      0.08179      2.45208           0.08206      2.46011
   C      0.05707      1.71095           0.05731      1.71817

 CPU-Time for VSCF calculation:         23.4 sec.


 **********************************************************************************************************************************
 DATASETS  * FILE   NREC   LENGTH (MB)   RECORD NAMES
              1      20      405.59       500      610      700      900      950      970     1000      129      960     1100   
                                          VAR    BASINP    GEOM    SYMINP    ZMAT    AOBASIS   BASIS     P2S    ABASIS      S 
                                         1400     1410     1200     1210     1080     1600     1650     1300     1700     1800   
                                           T        V       H0       H01     AOSYM     SMH    MOLCAS    ERIS     OPER     GRID   

              2      16      104.99       700     1000      520     1800     2100      701     5300     5450     5400     2101   
                                         GEOM     BASIS   MCVARS    GRID      RKS     GEOM     HESS     NMOD     FREQ      RKS  
                                         5600     5650     5550     5750     5770     5700   
                                         SURF    DIPOLE   VIBINFO   POLY      MU      VSCF   

 PROGRAMS   *        TOTAL      VSCF    KS-SCF       INT    KS-SCF       INT    KS-SCF       INT    KS-SCF       INT    KS-SCF
 CPU TIMES  *    107234.36     23.38     19.76     46.00     21.51     46.05     19.65     46.95     21.37     46.89     19.55
 REAL TIME  *    110313.93 SEC
 DISK USED  *         1.68 GB
 **********************************************************************************************************************************


 PROGRAM * VCI (Vibrational configuration interaction)   Authors: G. Rauhut 2004, M. Neff 2009, D. Oschetzki 2013, T. Petrenko 2016
 
 Reading potential information from:      5600.2    5750.2
 Reading dipole information from:         5650.2    5750.2
 Reading VSCF wave function from:         5700.2
 
 READM: TRYING TO READ BEYOND RECORD BOUNDARY:
 RECORD     5750.2  EXTENSION= 1  OFFSET=      11772.  ADDRESS= 10404363.  LEN=      145152  LENREST=       25548

 Records on file 2

 IREC   NAME  TYPE            OFFSET         LENGTH    IMPLEMENTATION   EXT   PREV   PARENT  MPP_STATE
   1     700  GEOM              4096.         31578.         df          0      0      0      0
   2    1000  BASIS            35674.          4368.         df          0      0      0      0
   3     520  MCVARS           40042.          4096.         df          0      0      0      0
   4    1800  GRID             44138.           625.         df          0      0      0      0
   5    2100  RKS              44763.        461952.         df          0      0      0      0
   6     701  GEOM            506715.         31578.         df          0      0      0      0
   7    5300  HESS            538293.           318.         df          0      0      0      0
   8    5450  NMOD            538611.           737.         df          0      0      0      0
   9    5400  FREQ            539348.           287.         df          0      0      0      0
  10    2101  RKS             539635.        461952.         df          0      0      0      0
  11    5600  SURF           1001587.       8646892.         df          0      0      0      0
  12    5650  DIPOLE         9648479.        740112.         df          0      0      0      0
  13    5550  VIBINFO       10388591.          4000.         df          0      0      0      0
  14    5750  POLY          10392591.        131376.         df          0      0      0      0
  15    5770  MU            10523967.         12097.         df          0      0      0      0
  16    5700  VSCF          10536064.       2588015.         df          0      0      0      0
  17    5800                13124079.    2500000000.         df          0      0      0      0
 

 GLOBAL ERROR fehler on processor   0                                         
