 Entering Gaussian System, Link 0=g16
 Input=CFC-113.gjf
 Output=CFC-113.log
 Initial command:
 /apps/gaussian/g16c01/g16/l1.exe "/jobfs/11006726.gadi-pbs/Gau-1408987.inp" -scrdir="/jobfs/11006726.gadi-pbs/"
 Entering Link 1 = /apps/gaussian/g16c01/g16/l1.exe PID=   1408988.
  
 Copyright (c) 1988-2019, Gaussian, Inc.  All Rights Reserved.
  
 This is part of the Gaussian(R) 16 program.  It is based on
 the Gaussian(R) 09 system (copyright 2009, Gaussian, Inc.),
 the Gaussian(R) 03 system (copyright 2003, Gaussian, Inc.),
 the Gaussian(R) 98 system (copyright 1998, Gaussian, Inc.),
 the Gaussian(R) 94 system (copyright 1995, Gaussian, Inc.),
 the Gaussian 92(TM) system (copyright 1992, Gaussian, Inc.),
 the Gaussian 90(TM) system (copyright 1990, Gaussian, Inc.),
 the Gaussian 88(TM) system (copyright 1988, Gaussian, Inc.),
 the Gaussian 86(TM) system (copyright 1986, Carnegie Mellon
 University), and the Gaussian 82(TM) system (copyright 1983,
 Carnegie Mellon University). Gaussian is a federally registered
 trademark of Gaussian, Inc.
  
 This software contains proprietary and confidential information,
 including trade secrets, belonging to Gaussian, Inc.
  
 This software is provided under written license and may be
 used, copied, transmitted, or stored only in accord with that
 written license.
  
 The following legend is applicable only to US Government
 contracts under FAR:
  
                    RESTRICTED RIGHTS LEGEND
  
 Use, reproduction and disclosure by the US Government is
 subject to restrictions as set forth in subparagraphs (a)
 and (c) of the Commercial Computer Software - Restricted
 Rights clause in FAR 52.227-19.
  
 Gaussian, Inc.
 340 Quinnipiac St., Bldg. 40, Wallingford CT 06492
  
  
 ---------------------------------------------------------------
 Warning -- This program may not be used in any manner that
 competes with the business of Gaussian, Inc. or will provide
 assistance to any competitor of Gaussian, Inc.  The licensee
 of this program is prohibited from giving any competitor of
 Gaussian, Inc. access to this program.  By using this program,
 the user acknowledges that Gaussian, Inc. is engaged in the
 business of creating and licensing software in the field of
 computational chemistry and represents and warrants to the
 licensee that it is not a competitor of Gaussian, Inc. and that
 it will not use this program in any manner prohibited above.
 ---------------------------------------------------------------
  

 Cite this work as:
 Gaussian 16, Revision C.01,
 M. J. Frisch, G. W. Trucks, H. B. Schlegel, G. E. Scuseria, 
 M. A. Robb, J. R. Cheeseman, G. Scalmani, V. Barone, 
 G. A. Petersson, H. Nakatsuji, X. Li, M. Caricato, A. V. Marenich, 
 J. Bloino, B. G. Janesko, R. Gomperts, B. Mennucci, H. P. Hratchian, 
 J. V. Ortiz, A. F. Izmaylov, J. L. Sonnenberg, D. Williams-Young, 
 F. Ding, F. Lipparini, F. Egidi, J. Goings, B. Peng, A. Petrone, 
 T. Henderson, D. Ranasinghe, V. G. Zakrzewski, J. Gao, N. Rega, 
 G. Zheng, W. Liang, M. Hada, M. Ehara, K. Toyota, R. Fukuda, 
 J. Hasegawa, M. Ishida, T. Nakajima, Y. Honda, O. Kitao, H. Nakai, 
 T. Vreven, K. Throssell, J. A. Montgomery, Jr., J. E. Peralta, 
 F. Ogliaro, M. J. Bearpark, J. J. Heyd, E. N. Brothers, K. N. Kudin, 
 V. N. Staroverov, T. A. Keith, R. Kobayashi, J. Normand, 
 K. Raghavachari, A. P. Rendell, J. C. Burant, S. S. Iyengar, 
 J. Tomasi, M. Cossi, J. M. Millam, M. Klene, C. Adamo, R. Cammi, 
 J. W. Ochterski, R. L. Martin, K. Morokuma, O. Farkas, 
 J. B. Foresman, and D. J. Fox, Gaussian, Inc., Wallingford CT, 2019.
 
 ******************************************
 Gaussian 16:  ES64L-G16RevC.01  3-Jul-2019
                 8-Sep-2020 
 ******************************************
 %NprocShared=4
 Will use up to    4 processors via shared memory.
 %chk=checkpoint.chk
 ----------------------------------------------------------------------
 # wB97xD/Gen Freq=(anharmonic,ReadAnharm) Opt=(VeryTight,ZMatrix,CalcA
 ll) Int=UltraFine
 ----------------------------------------------------------------------
 1/7=1,10=4,18=40,26=4,38=1,80=1/1,3;
 2/12=2,17=6,18=5,29=3,40=1/2;
 3/5=7,11=2,25=1,30=1,71=2,74=-58,75=-5,140=1/1,2,3;
 4//1;
 5/5=2,38=5/2;
 8/6=4,10=90,11=11/1;
 11/6=1,8=1,9=11,15=111,16=1/1,2,10;
 10/6=1/2;
 6/7=2,8=2,9=2,10=2,18=1,28=1/1;
 7/10=1,25=1/1,2,3,16;
 1/7=1,10=4,18=40,26=4,80=1/3(3);
 2/29=3/2;
 7/8=1,9=1,25=1,44=-1,71=2,72=1/16;
 99//99;
 2/29=3/2;
 3/5=7,6=1,11=2,25=1,30=1,71=2,74=-58,75=-5,82=7,140=1/1,2,3;
 4/5=5,16=3,69=1/1;
 5/5=2,38=5/2;
 8/6=4,10=90,11=11/1;
 11/6=1,8=1,9=11,15=111,16=1/1,2,10;
 10/6=1/2;
 7/10=1,25=1/1,2,3,16;
 1/7=1,10=4,18=40,26=4,80=1/3(-8);
 2/29=3/2;
 6/7=2,8=2,9=2,10=2,18=1,19=2,28=1/1;
 7/8=1,9=1,25=1,44=-1,71=1,72=1/16;
 99//99;
 -----------------------------------------------------------
 CFC-113 - Cl2FC-CClF2 ANHARMONIC FREQUENCIES - C1 CONFORMER
 -----------------------------------------------------------
 Symbolic Z-matrix:
 Charge =  0 Multiplicity = 1
 C
 C                    1    r2
 Cl                   1    r3       2    a3
 F                    1    r4       2    a4       3    d4       0
 F                    1    r5       2    a5       3    d5       0
 Cl                   2    r6       1    a6       3    d6       0
 Cl                   2    r7       1    a7       3    d7       0
 F                    2    r8       1    a8       3    d8       0
       Variables:
  r2                    1.5462                   
  r3                    1.7881                   
  a3                  114.25                     
  r4                    1.3641                   
  a4                  110.37                     
  d4                  238.15                     
  r5                    1.3641                   
  a5                  110.37                     
  d5                  121.85                     
  r6                    1.796                    
  a6                  112.41                     
  d6                   61.45                     
  r7                    1.796                    
  a7                  112.41                     
  d7                  298.55                     
  r8                    1.3679                   
  a8                  109.28                     
  d8                  180.                       
 

 GradGradGradGradGradGradGradGradGradGradGradGradGradGradGradGradGradGrad
 Berny optimization.
 Initialization pass.
                       ----------------------------
                       !    Initial Parameters    !
                       ! (Angstroms and Degrees)  !
 ----------------------                            ----------------------
 !      Name          Value   Derivative information (Atomic Units)     !
 ------------------------------------------------------------------------
 !       r2          1.5462   calculate D2E/DX2 analytically            !
 !       r3          1.7881   calculate D2E/DX2 analytically            !
 !       a3        114.25     calculate D2E/DX2 analytically            !
 !       r4          1.3641   calculate D2E/DX2 analytically            !
 !       a4        110.37     calculate D2E/DX2 analytically            !
 !       d4        238.15     calculate D2E/DX2 analytically            !
 !       r5          1.3641   calculate D2E/DX2 analytically            !
 !       a5        110.37     calculate D2E/DX2 analytically            !
 !       d5        121.85     calculate D2E/DX2 analytically            !
 !       r6          1.796    calculate D2E/DX2 analytically            !
 !       a6        112.41     calculate D2E/DX2 analytically            !
 !       d6         61.45     calculate D2E/DX2 analytically            !
 !       r7          1.796    calculate D2E/DX2 analytically            !
 !       a7        112.41     calculate D2E/DX2 analytically            !
 !       d7        298.55     calculate D2E/DX2 analytically            !
 !       r8          1.3679   calculate D2E/DX2 analytically            !
 !       a8        109.28     calculate D2E/DX2 analytically            !
 !       d8        180.0      calculate D2E/DX2 analytically            !
 ------------------------------------------------------------------------
 Trust Radius=3.00D-01 FncErr=1.00D-07 GrdErr=1.00D-06 EigMax=2.50D+02 EigMin=1.00D-04
 Number of steps in this run=     28 maximum allowed number of steps=    100.
 GradGradGradGradGradGradGradGradGradGradGradGradGradGradGradGradGradGrad

 ---------------------------------------------------------------------------------------------------
                            Z-MATRIX (ANGSTROMS AND DEGREES)
   CD    Cent   Atom    N1       Length/X        N2       Alpha/Y        N3        Beta/Z          J
 ---------------------------------------------------------------------------------------------------
      1      1  C 
      2      2  C        1   1.546200(     1)
      3      3  Cl       1   1.788100(     2)      2  114.250(     8)
      4      4  F        1   1.364100(     3)      2  110.370(     9)      3  238.150(    14)      0
      5      5  F        1   1.364100(     4)      2  110.370(    10)      3  121.850(    15)      0
      6      6  Cl       2   1.796000(     5)      1  112.410(    11)      3   61.450(    16)      0
      7      7  Cl       2   1.796000(     6)      1  112.410(    12)      3  298.550(    17)      0
      8      8  F        2   1.367900(     7)      1  109.280(    13)      3  180.000(    18)      0
 ---------------------------------------------------------------------------------------------------
                         Z-Matrix orientation:                         
 ---------------------------------------------------------------------
 Center     Atomic      Atomic             Coordinates (Angstroms)
 Number     Number       Type             X           Y           Z
 ---------------------------------------------------------------------
      1          6           0        0.000000    0.000000    0.000000
      2          6           0        0.000000    0.000000    1.546200
      3         17           0        1.630322    0.000000   -0.734406
      4          9           0       -0.674817    1.086250   -0.474818
      5          9           0       -0.674817   -1.086250   -0.474818
      6         17           0        0.793531    1.458465    2.230892
      7         17           0        0.793531   -1.458465    2.230892
      8          9           0       -1.291183    0.000000    1.997860
 ---------------------------------------------------------------------
                    Distance matrix (angstroms):
                    1          2          3          4          5
     1  C    0.000000
     2  C    1.546200   0.000000
     3  Cl   1.788100   2.803411   0.000000
     4  F    1.364100   2.391616   2.561443   0.000000
     5  F    1.364100   2.391616   2.561443   2.172500   0.000000
     6  Cl   2.780952   1.796000   3.408861   3.100880   3.994057
     7  Cl   2.780952   1.796000   3.408861   3.994057   3.100880
     8  F    2.378781   1.367900   4.000059   2.770195   2.770195
                    6          7          8
     6  Cl   0.000000
     7  Cl   2.916931   0.000000
     8  F    2.554889   2.554889   0.000000
 Stoichiometry    C2Cl3F3
 Framework group  CS[SG(C2ClF),X(Cl2F2)]
 Deg. of freedom    11
 Full point group                 CS      NOp   2
 Largest Abelian subgroup         CS      NOp   2
 Largest concise Abelian subgroup CS      NOp   2
                         Standard orientation:                         
 ---------------------------------------------------------------------
 Center     Atomic      Atomic             Coordinates (Angstroms)
 Number     Number       Type             X           Y           Z
 ---------------------------------------------------------------------
      1          6           0        0.132947    0.965450   -0.000000
      2          6           0       -0.604552   -0.393531    0.000000
      3         17           0        1.916157    0.833310   -0.000000
      4          9           0       -0.233685    1.704646    1.086250
      5          9           0       -0.233685    1.704646   -1.086250
      6         17           0       -0.233685   -1.373813    1.458465
      7         17           0       -0.233685   -1.373813   -1.458465
      8          9           0       -1.954825   -0.174641    0.000000
 ---------------------------------------------------------------------
 Rotational constants (GHZ):           1.4122889           1.0276431           0.9697558
 General basis read from cards:  (5D, 7F)
 There are   129 symmetry adapted cartesian basis functions of A'  symmetry.
 There are    83 symmetry adapted cartesian basis functions of A"  symmetry.
 There are   117 symmetry adapted basis functions of A'  symmetry.
 There are    79 symmetry adapted basis functions of A"  symmetry.
   196 basis functions,   432 primitive gaussians,   212 cartesian basis functions
    45 alpha electrons       45 beta electrons
       nuclear repulsion energy       691.8139435788 Hartrees.
 NAtoms=    8 NActive=    8 NUniq=    6 SFac= 1.78D+00 NAtFMM=   60 NAOKFM=F Big=F
 Integral buffers will be    131072 words long.
 Raffenetti 2 integral format.
 Two-electron integral symmetry is turned on.
 Nuclear repulsion after empirical dispersion term =      691.8110514239 Hartrees.
 One-electron integrals computed using PRISM.
 NBasis=   196 RedAO= T EigKep=  1.71D-04  NBF=   117    79
 NBsUse=   196 1.00D-06 EigRej= -1.00D+00 NBFU=   117    79
 ExpMin= 3.35D-02 ExpMax= 6.35D+04 ExpMxC= 2.17D+03 IAcc=3 IRadAn=         5 AccDes= 0.00D+00
 Harris functional with IExCor= 4639 and IRadAn=       5 diagonalized for initial guess.
 HarFok:  IExCor= 4639 AccDes= 0.00D+00 IRadAn=         5 IDoV= 1 UseB2=F ITyADJ=14
 ICtDFT=  3500011 ScaDFX=  1.000000  1.000000  1.000000  1.000000
 FoFCou: FMM=F IPFlag=           0 FMFlag=      100000 FMFlg1=           0
         NFxFlg=           0 DoJE=T BraDBF=F KetDBF=T FulRan=T
         wScrn=  0.000000 ICntrl=       500 IOpCl=  0 I1Cent=   200000004 NGrid=           0
         NMat0=    1 NMatS0=      1 NMatT0=    0 NMatD0=    1 NMtDS0=    0 NMtDT0=    0
 Petite list used in FoFCou.
 Initial guess orbital symmetries:
       Occupied  (A') (A") (A') (A') (A") (A') (A') (A') (A') (A")
                 (A') (A') (A") (A') (A') (A") (A") (A') (A') (A")
                 (A') (A') (A") (A') (A') (A") (A') (A') (A') (A")
                 (A') (A") (A') (A') (A") (A") (A') (A") (A') (A')
                 (A") (A') (A') (A") (A")
       Virtual   (A') (A') (A') (A") (A') (A") (A') (A') (A") (A')
                 (A") (A') (A') (A") (A") (A') (A') (A") (A') (A')
                 (A') (A') (A") (A') (A") (A") (A') (A") (A') (A")
                 (A') (A") (A') (A') (A') (A') (A') (A") (A') (A")
                 (A') (A") (A') (A") (A') (A") (A') (A") (A") (A')
                 (A') (A') (A") (A') (A') (A') (A") (A') (A") (A')
                 (A') (A") (A") (A') (A') (A') (A') (A") (A") (A')
                 (A") (A') (A') (A") (A") (A") (A') (A') (A') (A')
                 (A") (A') (A") (A") (A') (A') (A") (A') (A") (A")
                 (A') (A") (A') (A') (A') (A") (A') (A") (A") (A')
                 (A") (A') (A") (A') (A") (A') (A") (A') (A') (A')
                 (A") (A') (A') (A") (A') (A') (A") (A") (A') (A')
                 (A') (A") (A') (A') (A") (A') (A") (A') (A") (A')
                 (A') (A") (A') (A") (A") (A") (A') (A') (A") (A')
                 (A") (A') (A') (A") (A') (A") (A') (A') (A') (A')
                 (A")
 The electronic state of the initial guess is 1-A'.
 Requested convergence on RMS density matrix=1.00D-08 within 128 cycles.
 Requested convergence on MAX density matrix=1.00D-06.
 Requested convergence on             energy=1.00D-06.
 No special actions if energy rises.
 SCF Done:  E(RwB97XD) =  -1756.15485833     A.U. after   14 cycles
            NFock= 14  Conv=0.46D-08     -V/T= 2.0014
 DoSCS=F DFT=T ScalE2(SS,OS)=  1.000000  1.000000
 Range of M.O.s used for correlation:     1   196
 NBasis=   196 NAE=    45 NBE=    45 NFC=     0 NFV=     0
 NROrb=    196 NOA=    45 NOB=    45 NVA=   151 NVB=   151

 **** Warning!!: The largest alpha MO coefficient is  0.17875937D+02

 Symmetrizing basis deriv contribution to polar:
 IMax=3 JMax=2 DiffMx= 0.00D+00
 G2DrvN: will do     9 centers at a time, making    1 passes.
 Calling FoFCou, ICntrl=  3107 FMM=F I1Cent=   0 AccDes= 0.00D+00.
 End of G2Drv F.D. properties file   721 does not exist.
 End of G2Drv F.D. properties file   722 does not exist.
 End of G2Drv F.D. properties file   788 does not exist.
          IDoAtm=11111111
          Differentiating once with respect to electric field.
                with respect to dipole field.
          Differentiating once with respect to nuclear coordinates.
 CalDSu exits because no D1Ps are significant.
          There are    21 degrees of freedom in the 1st order CPHF.  IDoFFX=4 NUNeed=    21.
     21 vectors produced by pass  0 Test12= 3.24D-14 4.76D-09 XBig12= 3.21D+01 1.86D+00.
 AX will form    21 AO Fock derivatives at one time.
     21 vectors produced by pass  1 Test12= 3.24D-14 4.76D-09 XBig12= 4.36D+00 4.20D-01.
     21 vectors produced by pass  2 Test12= 3.24D-14 4.76D-09 XBig12= 3.92D-01 1.04D-01.
     21 vectors produced by pass  3 Test12= 3.24D-14 4.76D-09 XBig12= 1.90D-02 1.93D-02.
     21 vectors produced by pass  4 Test12= 3.24D-14 4.76D-09 XBig12= 3.37D-04 2.93D-03.
     21 vectors produced by pass  5 Test12= 3.24D-14 4.76D-09 XBig12= 3.91D-06 3.52D-04.
     21 vectors produced by pass  6 Test12= 3.24D-14 4.76D-09 XBig12= 3.63D-08 2.35D-05.
     19 vectors produced by pass  7 Test12= 3.24D-14 4.76D-09 XBig12= 3.17D-10 2.27D-06.
      5 vectors produced by pass  8 Test12= 3.24D-14 4.76D-09 XBig12= 2.57D-12 1.63D-07.
      3 vectors produced by pass  9 Test12= 3.24D-14 4.76D-09 XBig12= 1.69D-14 1.98D-08.
 InvSVY:  IOpt=1 It=  1 EMax= 2.00D-15
 Solved reduced A of dimension   174 with    21 vectors.
 Isotropic polarizability for W=    0.000000       70.49 Bohr**3.
 End of Minotr F.D. properties file   721 does not exist.
 End of Minotr F.D. properties file   722 does not exist.
 End of Minotr F.D. properties file   788 does not exist.

 **********************************************************************

            Population analysis using the SCF Density.

 **********************************************************************

 Orbital symmetries:
       Occupied  (A") (A') (A') (A') (A') (A") (A') (A') (A") (A')
                 (A') (A") (A') (A') (A") (A') (A') (A") (A') (A")
                 (A') (A') (A") (A') (A') (A") (A') (A') (A') (A")
                 (A') (A") (A') (A') (A") (A") (A') (A") (A') (A')
                 (A") (A') (A') (A") (A")
       Virtual   (A') (A") (A') (A') (A') (A') (A") (A') (A") (A')
                 (A") (A') (A') (A') (A') (A") (A") (A") (A') (A")
                 (A') (A') (A') (A') (A') (A") (A") (A') (A") (A')
                 (A") (A') (A') (A") (A') (A') (A') (A') (A") (A")
                 (A') (A") (A') (A") (A') (A') (A") (A") (A') (A")
                 (A') (A') (A") (A') (A') (A") (A') (A') (A") (A')
                 (A") (A') (A') (A") (A') (A') (A') (A") (A") (A')
                 (A") (A') (A') (A") (A") (A") (A') (A') (A') (A')
                 (A") (A') (A") (A') (A") (A') (A") (A") (A') (A")
                 (A') (A") (A') (A') (A') (A") (A') (A") (A") (A')
                 (A") (A') (A') (A") (A") (A') (A") (A') (A') (A')
                 (A") (A') (A') (A") (A') (A') (A") (A") (A') (A')
                 (A') (A') (A") (A") (A') (A") (A') (A') (A") (A')
                 (A') (A") (A') (A") (A") (A") (A') (A') (A") (A')
                 (A") (A') (A') (A") (A') (A") (A') (A') (A') (A')
                 (A")
 The electronic state is 1-A'.
 Alpha  occ. eigenvalues -- -101.72548-101.72547-101.72441 -24.87619 -24.87456
 Alpha  occ. eigenvalues --  -24.87454 -10.57410 -10.54863  -9.62484  -9.62482
 Alpha  occ. eigenvalues --   -9.62410  -7.37278  -7.37277  -7.37185  -7.36123
 Alpha  occ. eigenvalues --   -7.36123  -7.36110  -7.36110  -7.36055  -7.36046
 Alpha  occ. eigenvalues --   -1.42888  -1.39382  -1.36248  -1.04956  -0.99672
 Alpha  occ. eigenvalues --   -0.96662  -0.87334  -0.77225  -0.71327  -0.70566
 Alpha  occ. eigenvalues --   -0.67647  -0.63684  -0.63556  -0.58796  -0.56980
 Alpha  occ. eigenvalues --   -0.54721  -0.54394  -0.51799  -0.50496  -0.46876
 Alpha  occ. eigenvalues --   -0.45255  -0.45066  -0.43569  -0.42844  -0.42059
 Alpha virt. eigenvalues --    0.01350   0.03356   0.03995   0.05371   0.07191
 Alpha virt. eigenvalues --    0.07954   0.08055   0.09683   0.09985   0.10062
 Alpha virt. eigenvalues --    0.11369   0.11804   0.13501   0.14733   0.14941
 Alpha virt. eigenvalues --    0.15155   0.15603   0.16542   0.16872   0.17523
 Alpha virt. eigenvalues --    0.18139   0.19042   0.20870   0.22657   0.24496
 Alpha virt. eigenvalues --    0.25282   0.26046   0.26606   0.26968   0.27230
 Alpha virt. eigenvalues --    0.27304   0.27800   0.28965   0.29336   0.30323
 Alpha virt. eigenvalues --    0.31453   0.33774   0.34161   0.34472   0.34706
 Alpha virt. eigenvalues --    0.35939   0.36594   0.36965   0.37688   0.38702
 Alpha virt. eigenvalues --    0.39889   0.40118   0.41130   0.42811   0.42924
 Alpha virt. eigenvalues --    0.43455   0.44566   0.45857   0.48102   0.51585
 Alpha virt. eigenvalues --    0.51917   0.51954   0.55389   0.55449   0.56880
 Alpha virt. eigenvalues --    0.57248   0.58824   0.60431   0.62075   0.70672
 Alpha virt. eigenvalues --    0.71229   0.74683   0.74888   0.75872   0.76677
 Alpha virt. eigenvalues --    0.77940   0.79981   0.80276   0.81012   0.84112
 Alpha virt. eigenvalues --    0.84552   0.84988   0.87220   0.89212   0.90587
 Alpha virt. eigenvalues --    0.90656   0.93071   0.93162   0.96216   0.96607
 Alpha virt. eigenvalues --    0.98058   0.99310   1.00176   1.00319   1.01618
 Alpha virt. eigenvalues --    1.02400   1.02408   1.03400   1.04341   1.05862
 Alpha virt. eigenvalues --    1.07652   1.07732   1.10258   1.12552   1.13224
 Alpha virt. eigenvalues --    1.15489   1.17201   1.19324   1.19769   1.21157
 Alpha virt. eigenvalues --    1.22518   1.32533   1.33700   1.34836   1.39428
 Alpha virt. eigenvalues --    1.50402   1.52006   1.55843   1.57941   1.65241
 Alpha virt. eigenvalues --    1.70418   1.74919   1.76718   1.83244   1.91575
 Alpha virt. eigenvalues --    1.93644   1.98928   2.00292   2.02292   2.02824
 Alpha virt. eigenvalues --    2.06330   2.07614   2.11957   2.17686   2.22161
 Alpha virt. eigenvalues --    2.29996   2.33442   2.55399   2.77602   2.82841
 Alpha virt. eigenvalues --    2.85092   2.85410   2.89993   2.90188   2.91956
 Alpha virt. eigenvalues --    2.95159   2.97380   2.98178   2.99713   3.06089
 Alpha virt. eigenvalues --    3.08451   3.11649   3.23080   3.56472   3.63754
 Alpha virt. eigenvalues --    3.66732
          Condensed to atoms (all electrons):
               1          2          3          4          5          6
     1  C    5.730205  -0.504118   0.261511  -0.385516  -0.385516  -0.292885
     2  C   -0.504118   6.388165  -0.281015  -0.096243  -0.096243   0.168382
     3  Cl   0.261511  -0.281015  17.683917  -0.148169  -0.148169   0.026592
     4  F   -0.385516  -0.096243  -0.148169  10.421293  -0.179047  -0.029201
     5  F   -0.385516  -0.096243  -0.148169  -0.179047  10.421293   0.029809
     6  Cl  -0.292885   0.168382   0.026592  -0.029201   0.029809  17.753883
     7  Cl  -0.292885   0.168382   0.026592   0.029809  -0.029201  -0.255206
     8  F   -0.039014  -0.561776   0.029724  -0.026963  -0.026963  -0.120223
               7          8
     1  C   -0.292885  -0.039014
     2  C    0.168382  -0.561776
     3  Cl   0.026592   0.029724
     4  F    0.029809  -0.026963
     5  F   -0.029201  -0.026963
     6  Cl  -0.255206  -0.120223
     7  Cl  17.753883  -0.120223
     8  F   -0.120223  10.402905
 Mulliken charges:
               1
     1  C    1.908218
     2  C    0.814465
     3  Cl  -0.450986
     4  F   -0.585964
     5  F   -0.585964
     6  Cl  -0.281151
     7  Cl  -0.281151
     8  F   -0.537468
 Sum of Mulliken charges =  -0.00000
 Mulliken charges with hydrogens summed into heavy atoms:
               1
     1  C    1.908218
     2  C    0.814465
     3  Cl  -0.450986
     4  F   -0.585964
     5  F   -0.585964
     6  Cl  -0.281151
     7  Cl  -0.281151
     8  F   -0.537468
 APT charges:
               1
     1  C    1.270721
     2  C    1.076801
     3  Cl  -0.247913
     4  F   -0.520685
     5  F   -0.520685
     6  Cl  -0.262183
     7  Cl  -0.262183
     8  F   -0.533873
 Sum of APT charges =  -0.00000
 APT charges with hydrogens summed into heavy atoms:
               1
     1  C    1.270721
     2  C    1.076801
     3  Cl  -0.247913
     4  F   -0.520685
     5  F   -0.520685
     6  Cl  -0.262183
     7  Cl  -0.262183
     8  F   -0.533873
 Electronic spatial extent (au):  <R**2>=           1322.9321
 Charge=             -0.0000 electrons
 Dipole moment (field-independent basis, Debye):
    X=              0.6526    Y=             -0.6697    Z=             -0.0000  Tot=              0.9351
 Quadrupole moment (field-independent basis, Debye-Ang):
   XX=            -63.8088   YY=            -64.4826   ZZ=            -63.2249
   XY=              0.1805   XZ=             -0.0000   YZ=              0.0000
 Traceless Quadrupole moment (field-independent basis, Debye-Ang):
   XX=              0.0300   YY=             -0.6438   ZZ=              0.6138
   XY=              0.1805   XZ=             -0.0000   YZ=              0.0000
 Octapole moment (field-independent basis, Debye-Ang**2):
  XXX=             -0.3403  YYY=              9.2624  ZZZ=              0.0000  XYY=             -2.9523
  XXY=              6.9116  XXZ=             -0.0000  XZZ=             -3.0749  YZZ=             -3.5500
  YYZ=              0.0000  XYZ=              0.0000
 Hexadecapole moment (field-independent basis, Debye-Ang**3):
 XXXX=           -442.5917 YYYY=           -604.3457 ZZZZ=           -426.9016 XXXY=            -78.5883
 XXXZ=             -0.0000 YYYX=            -84.9734 YYYZ=             -0.0000 ZZZX=             -0.0000
 ZZZY=             -0.0000 XXYY=           -181.0870 XXZZ=           -156.5836 YYZZ=           -159.8630
 XXYZ=             -0.0000 YYXZ=             -0.0000 ZZXY=            -29.8088
 N-N= 6.918110514239D+02 E-N=-5.558136736499D+03  KE= 1.753684974769D+03
 Symmetry A'   KE= 1.137456023796D+03
 Symmetry A"   KE= 6.162289509733D+02
  Exact polarizability:      69.497       1.761      68.028       0.000       0.000      73.942
 Approx polarizability:      81.470      -3.777      75.412      -0.000      -0.000      86.169
 Calling FoFJK, ICntrl=    100127 FMM=F ISym2X=1 I1Cent= 0 IOpClX= 0 NMat=1 NMatS=1 NMatT=0.
 ***** Axes restored to original set *****
 -------------------------------------------------------------------
 Center     Atomic                   Forces (Hartrees/Bohr)
 Number     Number              X              Y              Z
 -------------------------------------------------------------------
      1        6          -0.013450165    0.000000000   -0.035147250
      2        6          -0.006480954   -0.000000000    0.030299298
      3       17          -0.009101897    0.000000000    0.008580751
      4        9           0.011193280   -0.014799138    0.015269984
      5        9           0.011193280    0.014799138    0.015269984
      6       17          -0.004960407   -0.006613734   -0.009742649
      7       17          -0.004960407    0.006613734   -0.009742649
      8        9           0.016567270   -0.000000000   -0.014787468
 -------------------------------------------------------------------
 Cartesian Forces:  Max     0.035147250 RMS     0.013704302
 -----------------------------------------------------------------------------------------------
                       Internal Coordinate Forces (Hartree/Bohr or radian)
  Cent   Atom   N1       Length/X         N2         Alpha/Y        N3         Beta/Z          J
 -----------------------------------------------------------------------------------------------
      1  C 
      2  C        1  -0.003973(     1)
      3  Cl       1  -0.011823(     2)      2  -0.013804(     8)
      4  F        1  -0.022637(     3)      2  -0.020322(     9)      3   0.004104(    14)     0
      5  F        1  -0.022637(     4)      2  -0.020322(    10)      3  -0.004104(    15)     0
      6  Cl       2  -0.011277(     5)      1  -0.019985(    11)      3   0.003754(    16)     0
      7  Cl       2  -0.011277(     6)      1  -0.019985(    12)      3  -0.003754(    17)     0
      8  F        2  -0.020521(     7)      1  -0.021941(    13)      3   0.000000(    18)     0
 -----------------------------------------------------------------------------------------------
 Internal  Forces:  Max     0.022637223 RMS     0.015301456

 GradGradGradGradGradGradGradGradGradGradGradGradGradGradGradGradGradGrad
 Berny optimization.
 Search for a local minimum.
 Step number   1 out of a maximum of   28
 All quantities printed in internal units (Hartrees-Bohrs-Radians)
 Second derivative matrix not updated -- analytic derivatives used.
 The second derivative matrix:
                          r2        r3        a3        r4        a4
           r2           0.26739
           r3           0.01353   0.20457
           a3           0.04375  -0.00935   0.42177
           r4           0.01726   0.03833  -0.03723   0.33746
           a4           0.03437  -0.03809   0.13477  -0.01047   0.42563
           d4          -0.00071  -0.04746   0.08664   0.01261  -0.02037
           r5           0.01726   0.03833  -0.03723   0.05123  -0.03929
           a5           0.03437  -0.03809   0.13477  -0.03929   0.14241
           d5           0.00071   0.04746  -0.08664  -0.06634   0.10467
           r6           0.01201   0.00288   0.00516   0.00227   0.00143
           a6           0.03763   0.00542   0.02762   0.00012   0.01073
           d6           0.00249   0.00022   0.01897   0.00478  -0.00946
           r7           0.01201   0.00288   0.00516   0.00183   0.01133
           a7           0.03763   0.00542   0.02762   0.01307   0.02762
           d7          -0.00249  -0.00022  -0.01897   0.00060  -0.00100
           r8           0.01596   0.00192   0.01199   0.00335  -0.00469
           a8           0.02927   0.01183   0.02694  -0.00421  -0.00210
           d8          -0.00000   0.00000  -0.00000  -0.00717   0.00261
                          d4        r5        a5        d5        r6
           d4           0.42477
           r5           0.06634   0.33746
           a5          -0.10467  -0.01047   0.42563
           d5          -0.24522  -0.01261   0.02037   0.42477
           r6           0.00220   0.00183   0.01133   0.00014   0.19610
           a6          -0.00867   0.01307   0.02762   0.00124  -0.00822
           d6           0.00489  -0.00060   0.00100   0.00360  -0.00068
           r7          -0.00014   0.00227   0.00143  -0.00220   0.02994
           a7          -0.00124   0.00012   0.01073   0.00867  -0.03703
           d7           0.00360  -0.00478   0.00946   0.00489  -0.04732
           r8          -0.00857   0.00335  -0.00469   0.00857   0.03821
           a8           0.00377  -0.00421  -0.00210  -0.00377  -0.03285
           d8           0.00380   0.00717  -0.00261   0.00380   0.05027
                          a6        d6        r7        a7        d7
           a6           0.40949
           d6           0.00526   0.38104
           r7          -0.03703   0.04732   0.19610
           a7           0.13474  -0.09337  -0.00822   0.40949
           d7           0.09337  -0.16814   0.00068  -0.00526   0.38104
           r8          -0.03338  -0.05520   0.03821  -0.03338   0.05520
           a8           0.11837   0.09232  -0.03285   0.11837  -0.09232
           d8          -0.08564  -0.19272  -0.05027   0.08564  -0.19272
                          r8        a8        d8
           r8           0.33057
           a8          -0.00417   0.40247
           d8           0.00000  -0.00000   0.39689
 ITU=  0
     Eigenvalues ---    0.01551   0.10613   0.12534   0.13101   0.15806
     Eigenvalues ---    0.22535   0.24239   0.24506   0.25961   0.31048
     Eigenvalues ---    0.33349   0.35608   0.39612   0.63651   0.64321
     Eigenvalues ---    0.66639   0.73236   0.78956
 RFO step:  Lambda=-9.41375938D-03 EMin= 1.55070415D-02
 Linear search not attempted -- first point.
 Variable       Old X    -DE/DX   Delta X   Delta X   Delta X     New X
                                 (Linear)    (Quad)   (Total)
    r2        2.92189  -0.00397   0.00000   0.02717   0.02717   2.94906
    r3        3.37902  -0.01182   0.00000  -0.04132  -0.04132   3.33770
    a3        1.99404  -0.01380   0.00000  -0.01602  -0.01602   1.97801
    r4        2.57778  -0.02264   0.00000  -0.05999  -0.05999   2.51779
    a4        1.92632  -0.02032   0.00000  -0.03746  -0.03746   1.88886
    d4        4.15650   0.00410   0.00000   0.00469   0.00469   4.16119
    r5        2.57778  -0.02264   0.00000  -0.05999  -0.05999   2.51779
    a5        1.92632  -0.02032   0.00000  -0.03746  -0.03746   1.88886
    d5        2.12668  -0.00410   0.00000  -0.00469  -0.00469   2.12199
    r6        3.39395  -0.01128   0.00000  -0.05174  -0.05174   3.34221
    a6        1.96192  -0.01998   0.00000  -0.02696  -0.02696   1.93496
    d6        1.07250   0.00375   0.00000   0.01075   0.01075   1.08325
    r7        3.39395  -0.01128   0.00000  -0.05174  -0.05174   3.34221
    a7        1.96192  -0.01998   0.00000  -0.02696  -0.02696   1.93496
    d7        5.21068  -0.00375   0.00000  -0.01075  -0.01075   5.19993
    r8        2.58496  -0.02052   0.00000  -0.05127  -0.05127   2.53369
    a8        1.90730  -0.02194   0.00000  -0.05276  -0.05276   1.85454
    d8        3.14159   0.00000   0.00000  -0.00000  -0.00000   3.14159
         Item               Value     Threshold  Converged?
 Maximum Force            0.022637     0.000002     NO 
 RMS     Force            0.015301     0.000001     NO 
 Maximum Displacement     0.059987     0.000006     NO 
 RMS     Displacement     0.037418     0.000004     NO 
 Predicted change in Energy=-4.825502D-03
 GradGradGradGradGradGradGradGradGradGradGradGradGradGradGradGradGradGrad

 ---------------------------------------------------------------------------------------------------
                            Z-MATRIX (ANGSTROMS AND DEGREES)
   CD    Cent   Atom    N1       Length/X        N2       Alpha/Y        N3        Beta/Z          J
 ---------------------------------------------------------------------------------------------------
      1      1  C 
      2      2  C        1   1.560575(     1)
      3      3  Cl       1   1.766233(     2)      2  113.332(     8)
      4      4  F        1   1.332356(     3)      2  108.223(     9)      3  238.419(    14)      0
      5      5  F        1   1.332356(     4)      2  108.223(    10)      3  121.581(    15)      0
      6      6  Cl       2   1.768619(     5)      1  110.865(    11)      3   62.066(    16)      0
      7      7  Cl       2   1.768619(     6)      1  110.865(    12)      3  297.934(    17)      0
      8      8  F        2   1.340769(     7)      1  106.257(    13)      3  180.000(    18)      0
 ---------------------------------------------------------------------------------------------------
                         Z-Matrix orientation:                         
 ---------------------------------------------------------------------
 Center     Atomic      Atomic             Coordinates (Angstroms)
 Number     Number       Type             X           Y           Z
 ---------------------------------------------------------------------
      1          6           0        0.000000    0.000000    0.000000
      2          6           0        0.000000    0.000000    1.560575
      3         17           0        1.621801    0.000000   -0.699528
      4          9           0       -0.662767    1.078104   -0.416659
      5          9           0       -0.662767   -1.078104   -0.416659
      6         17           0        0.774186    1.460081    2.190506
      7         17           0        0.774186   -1.460081    2.190506
      8          9           0       -1.287158    0.000000    1.935926
 ---------------------------------------------------------------------
                    Distance matrix (angstroms):
                    1          2          3          4          5
     1  C    0.000000
     2  C    1.560575   0.000000
     3  Cl   1.766233   2.781781   0.000000
     4  F    1.332356   2.347557   2.541963   0.000000
     5  F    1.332356   2.347557   2.541963   2.156208   0.000000
     6  Cl   2.743997   1.768619   3.347027   3.001341   3.912100
     7  Cl   2.743997   1.768619   3.347027   3.912100   3.001341
     8  F    2.324776   1.340769   3.925259   2.662110   2.662110
                    6          7          8
     6  Cl   0.000000
     7  Cl   2.920163   0.000000
     8  F    2.538855   2.538855   0.000000
 Stoichiometry    C2Cl3F3
 Framework group  CS[SG(C2ClF),X(Cl2F2)]
 Deg. of freedom    11
 Full point group                 CS      NOp   2
 Largest Abelian subgroup         CS      NOp   2
 Largest concise Abelian subgroup CS      NOp   2
                         Standard orientation:                         
 ---------------------------------------------------------------------
 Center     Atomic      Atomic             Coordinates (Angstroms)
 Number     Number       Type             X           Y           Z
 ---------------------------------------------------------------------
      1          6           0        0.143489    0.959626    0.000000
      2          6           0       -0.609794   -0.407108    0.000000
      3         17           0        1.901502    0.789429   -0.000000
      4          9           0       -0.235835    1.644446    1.078104
      5          9           0       -0.235835    1.644446   -1.078104
      6         17           0       -0.235835   -1.332490    1.460081
      7         17           0       -0.235835   -1.332490   -1.460081
      8          9           0       -1.918251   -0.114531    0.000000
 ---------------------------------------------------------------------
 Rotational constants (GHZ):           1.4278723           1.0774496           1.0074690
 Basis read from rwf:  (5D, 7F)
 There are   129 symmetry adapted cartesian basis functions of A'  symmetry.
 There are    83 symmetry adapted cartesian basis functions of A"  symmetry.
 There are   117 symmetry adapted basis functions of A'  symmetry.
 There are    79 symmetry adapted basis functions of A"  symmetry.
   196 basis functions,   432 primitive gaussians,   212 cartesian basis functions
    45 alpha electrons       45 beta electrons
       nuclear repulsion energy       702.6824669050 Hartrees.
 NAtoms=    8 NActive=    8 NUniq=    6 SFac= 1.78D+00 NAtFMM=   60 NAOKFM=F Big=F
 Integral buffers will be    131072 words long.
 Raffenetti 2 integral format.
 Two-electron integral symmetry is turned on.
 Nuclear repulsion after empirical dispersion term =      702.6797125199 Hartrees.
 One-electron integrals computed using PRISM.
 NBasis=   196 RedAO= T EigKep=  1.65D-04  NBF=   117    79
 NBsUse=   196 1.00D-06 EigRej= -1.00D+00 NBFU=   117    79
 Initial guess from the checkpoint file:  "checkpoint.chk"
 B after Tr=     0.000000   -0.000000    0.000000
         Rot=    0.999987    0.000000   -0.000000    0.005098 Ang=   0.58 deg.
 Initial guess orbital symmetries:
       Occupied  (A") (A') (A') (A') (A') (A") (A') (A') (A") (A')
                 (A') (A") (A') (A') (A") (A') (A') (A") (A') (A")
                 (A') (A') (A") (A') (A') (A") (A') (A') (A') (A")
                 (A') (A") (A') (A') (A") (A") (A') (A") (A') (A')
                 (A") (A') (A') (A") (A")
       Virtual   (A') (A") (A') (A') (A') (A') (A") (A') (A") (A')
                 (A") (A') (A') (A') (A') (A") (A") (A") (A') (A")
                 (A') (A') (A') (A') (A') (A") (A") (A') (A") (A')
                 (A") (A') (A') (A") (A') (A') (A') (A') (A") (A")
                 (A') (A") (A') (A") (A') (A') (A") (A") (A') (A")
                 (A') (A') (A") (A') (A') (A") (A') (A') (A") (A')
                 (A") (A') (A') (A") (A') (A') (A') (A") (A") (A')
                 (A") (A') (A') (A") (A") (A") (A') (A') (A') (A')
                 (A") (A') (A") (A') (A") (A') (A") (A") (A') (A")
                 (A') (A") (A') (A') (A') (A") (A') (A") (A") (A')
                 (A") (A') (A') (A") (A") (A') (A") (A') (A') (A')
                 (A") (A') (A') (A") (A') (A') (A") (A") (A') (A')
                 (A') (A') (A") (A") (A') (A") (A') (A') (A") (A')
                 (A') (A") (A') (A") (A") (A") (A') (A') (A") (A')
                 (A") (A') (A') (A") (A') (A") (A') (A') (A') (A')
                 (A")
 ExpMin= 3.35D-02 ExpMax= 6.35D+04 ExpMxC= 2.17D+03 IAcc=3 IRadAn=         5 AccDes= 0.00D+00
 Harris functional with IExCor= 4639 and IRadAn=       5 diagonalized for initial guess.
 HarFok:  IExCor= 4639 AccDes= 0.00D+00 IRadAn=         5 IDoV= 1 UseB2=F ITyADJ=14
 ICtDFT=  3500011 ScaDFX=  1.000000  1.000000  1.000000  1.000000
 FoFCou: FMM=F IPFlag=           0 FMFlag=      100000 FMFlg1=           0
         NFxFlg=           0 DoJE=T BraDBF=F KetDBF=T FulRan=T
         wScrn=  0.000000 ICntrl=       500 IOpCl=  0 I1Cent=   200000004 NGrid=           0
         NMat0=    1 NMatS0=      1 NMatT0=    0 NMatD0=    1 NMtDS0=    0 NMtDT0=    0
 Petite list used in FoFCou.
 Requested convergence on RMS density matrix=1.00D-08 within 128 cycles.
 Requested convergence on MAX density matrix=1.00D-06.
 Requested convergence on             energy=1.00D-06.
 No special actions if energy rises.
 SCF Done:  E(RwB97XD) =  -1756.15944975     A.U. after   11 cycles
            NFock= 11  Conv=0.67D-08     -V/T= 2.0012
 DoSCS=F DFT=T ScalE2(SS,OS)=  1.000000  1.000000
 Range of M.O.s used for correlation:     1   196
 NBasis=   196 NAE=    45 NBE=    45 NFC=     0 NFV=     0
 NROrb=    196 NOA=    45 NOB=    45 NVA=   151 NVB=   151

 **** Warning!!: The largest alpha MO coefficient is  0.20985866D+02

 Symmetrizing basis deriv contribution to polar:
 IMax=3 JMax=2 DiffMx= 0.00D+00
 G2DrvN: will do     9 centers at a time, making    1 passes.
 Calling FoFCou, ICntrl=  3107 FMM=F I1Cent=   0 AccDes= 0.00D+00.
 End of G2Drv F.D. properties file   721 does not exist.
 End of G2Drv F.D. properties file   722 does not exist.
 End of G2Drv F.D. properties file   788 does not exist.
          IDoAtm=11111111
          Differentiating once with respect to electric field.
                with respect to dipole field.
          Differentiating once with respect to nuclear coordinates.
 CalDSu exits because no D1Ps are significant.
          There are    21 degrees of freedom in the 1st order CPHF.  IDoFFX=4 NUNeed=    21.
     21 vectors produced by pass  0 Test12= 3.24D-14 4.76D-09 XBig12= 3.11D+01 1.91D+00.
 AX will form    21 AO Fock derivatives at one time.
     21 vectors produced by pass  1 Test12= 3.24D-14 4.76D-09 XBig12= 4.17D+00 3.98D-01.
     21 vectors produced by pass  2 Test12= 3.24D-14 4.76D-09 XBig12= 3.32D-01 8.39D-02.
     21 vectors produced by pass  3 Test12= 3.24D-14 4.76D-09 XBig12= 2.66D-02 2.15D-02.
     21 vectors produced by pass  4 Test12= 3.24D-14 4.76D-09 XBig12= 3.51D-04 3.60D-03.
     21 vectors produced by pass  5 Test12= 3.24D-14 4.76D-09 XBig12= 3.80D-06 3.31D-04.
     21 vectors produced by pass  6 Test12= 3.24D-14 4.76D-09 XBig12= 4.13D-08 3.39D-05.
     17 vectors produced by pass  7 Test12= 3.24D-14 4.76D-09 XBig12= 3.43D-10 2.71D-06.
      3 vectors produced by pass  8 Test12= 3.24D-14 4.76D-09 XBig12= 2.42D-12 1.86D-07.
      3 vectors produced by pass  9 Test12= 3.24D-14 4.76D-09 XBig12= 1.54D-14 1.31D-08.
 InvSVY:  IOpt=1 It=  1 EMax= 3.55D-15
 Solved reduced A of dimension   170 with    21 vectors.
 Isotropic polarizability for W=    0.000000       69.00 Bohr**3.
 End of Minotr F.D. properties file   721 does not exist.
 End of Minotr F.D. properties file   722 does not exist.
 End of Minotr F.D. properties file   788 does not exist.
 Calling FoFJK, ICntrl=    100127 FMM=F ISym2X=1 I1Cent= 0 IOpClX= 0 NMat=1 NMatS=1 NMatT=0.
 ***** Axes restored to original set *****
 -------------------------------------------------------------------
 Center     Atomic                   Forces (Hartrees/Bohr)
 Number     Number              X              Y              Z
 -------------------------------------------------------------------
      1        6           0.001884298    0.000000000    0.000459288
      2        6           0.001298890    0.000000000    0.000352476
      3       17           0.000277627    0.000000000   -0.000196028
      4        9          -0.001071976    0.001732955   -0.000919517
      5        9          -0.001071976   -0.001732955   -0.000919517
      6       17           0.000224481    0.000437928    0.000237895
      7       17           0.000224481   -0.000437928    0.000237895
      8        9          -0.001765825   -0.000000000    0.000747508
 -------------------------------------------------------------------
 Cartesian Forces:  Max     0.001884298 RMS     0.000911920
 -----------------------------------------------------------------------------------------------
                       Internal Coordinate Forces (Hartree/Bohr or radian)
  Cent   Atom   N1       Length/X         N2         Alpha/Y        N3         Beta/Z          J
 -----------------------------------------------------------------------------------------------
      1  C 
      2  C        1   0.001576(     1)
      3  Cl       1   0.000333(     2)      2   0.000234(     8)
      4  F        1   0.002223(     3)      2   0.000595(     9)      3  -0.000014(    14)     0
      5  F        1   0.002223(     4)      2   0.000595(    10)      3   0.000014(    15)     0
      6  Cl       2   0.000545(     5)      1   0.000157(    11)      3   0.000021(    16)     0
      7  Cl       2   0.000545(     6)      1   0.000157(    12)      3  -0.000021(    17)     0
      8  F        2   0.001904(     7)      1   0.000566(    13)      3   0.000000(    18)     0
 -----------------------------------------------------------------------------------------------
 Internal  Forces:  Max     0.002223055 RMS     0.000995271

 GradGradGradGradGradGradGradGradGradGradGradGradGradGradGradGradGradGrad
 Berny optimization.
 Search for a local minimum.
 Step number   2 out of a maximum of   28
 All quantities printed in internal units (Hartrees-Bohrs-Radians)
 Second derivative matrix not updated -- analytic derivatives used.
 DE= -4.59D-03 DEPred=-4.83D-03 R= 9.51D-01
 TightC=F SS=  1.41D+00  RLast= 1.59D-01 DXNew= 5.0454D-01 4.7625D-01
 Trust test= 9.51D-01 RLast= 1.59D-01 DXMaxT set to 4.76D-01
 The second derivative matrix:
                          r2        r3        a3        r4        a4
           r2           0.26431
           r3           0.01508   0.23053
           a3           0.04792  -0.00182   0.43662
           r4           0.02070   0.04055  -0.03616   0.41801
           a4           0.04540  -0.03962   0.13343   0.00399   0.45733
           d4          -0.00067  -0.04971   0.08558   0.01121  -0.01814
           r5           0.02070   0.04055  -0.03616   0.05421  -0.03653
           a5           0.04540  -0.03962   0.13343  -0.03653   0.13607
           d5           0.00067   0.04971  -0.08558  -0.06808   0.10259
           r6           0.01421   0.00292   0.00506   0.00244   0.00226
           a6           0.04443   0.00563   0.03025  -0.00033   0.01613
           d6           0.00175   0.00003   0.02159   0.00563  -0.01293
           r7           0.01421   0.00292   0.00506   0.00257   0.01282
           a7           0.04443   0.00563   0.03025   0.01490   0.03039
           d7          -0.00175  -0.00003  -0.02159   0.00021  -0.00235
           r8           0.01915   0.00262   0.01384   0.00355  -0.00581
           a8           0.04045   0.01324   0.02972  -0.00502   0.00096
           d8           0.00000   0.00000   0.00000  -0.00846   0.00509
                          d4        r5        a5        d5        r6
           d4           0.44635
           r5           0.06808   0.41801
           a5          -0.10259   0.00399   0.45733
           d5          -0.25497  -0.01121   0.01814   0.44635
           r6           0.00219   0.00257   0.01282   0.00044   0.22469
           a6          -0.01266   0.01490   0.03039   0.00208   0.00408
           d6           0.00686  -0.00021   0.00235   0.00368  -0.00517
           r7          -0.00044   0.00244   0.00226  -0.00219   0.02958
           a7          -0.00208  -0.00033   0.01613   0.01266  -0.03584
           d7           0.00368  -0.00563   0.01293   0.00686  -0.04567
           r8          -0.01010   0.00355  -0.00581   0.01010   0.04036
           a8           0.00672  -0.00502   0.00096  -0.00672  -0.03243
           d8           0.00574   0.00846  -0.00509   0.00574   0.05257
                          a6        d6        r7        a7        d7
           a6           0.42596
           d6           0.00447   0.38868
           r7          -0.03584   0.04567   0.22469
           a7           0.12636  -0.08874   0.00408   0.42596
           d7           0.08874  -0.16255   0.00517  -0.00447   0.38868
           r8          -0.03031  -0.05755   0.04036  -0.03031   0.05755
           a8           0.11286   0.09367  -0.03243   0.11286  -0.09367
           d8          -0.08104  -0.20388  -0.05257   0.08104  -0.20388
                          r8        a8        d8
           r8           0.39990
           a8           0.01349   0.43475
           d8           0.00000   0.00000   0.42327
 ITU=  1  0
     Eigenvalues ---    0.01760   0.12315   0.14757   0.14831   0.18047
     Eigenvalues ---    0.22839   0.27490   0.28425   0.28761   0.35858
     Eigenvalues ---    0.39270   0.42864   0.47677   0.63928   0.64854
     Eigenvalues ---    0.69672   0.76090   0.81706
 RFO step:  Lambda=-1.90824334D-05 EMin= 1.75954112D-02
 Quintic linear search produced a step of -0.04500.
 Variable       Old X    -DE/DX   Delta X   Delta X   Delta X     New X
                                 (Linear)    (Quad)   (Total)
    r2        2.94906   0.00158  -0.00122   0.00605   0.00482   2.95388
    r3        3.33770   0.00033   0.00186  -0.00260  -0.00074   3.33696
    a3        1.97801   0.00023   0.00072  -0.00039   0.00033   1.97835
    r4        2.51779   0.00222   0.00270   0.00210   0.00480   2.52259
    a4        1.88886   0.00059   0.00169  -0.00098   0.00071   1.88956
    d4        4.16119  -0.00001  -0.00021  -0.00027  -0.00048   4.16071
    r5        2.51779   0.00222   0.00270   0.00210   0.00480   2.52259
    a5        1.88886   0.00059   0.00169  -0.00098   0.00071   1.88956
    d5        2.12199   0.00001   0.00021   0.00027   0.00048   2.12247
    r6        3.34221   0.00054   0.00233  -0.00127   0.00106   3.34326
    a6        1.93496   0.00016   0.00121  -0.00142  -0.00021   1.93475
    d6        1.08325   0.00002  -0.00048   0.00065   0.00016   1.08342
    r7        3.34221   0.00054   0.00233  -0.00127   0.00106   3.34326
    a7        1.93496   0.00016   0.00121  -0.00142  -0.00021   1.93475
    d7        5.19993  -0.00002   0.00048  -0.00065  -0.00016   5.19977
    r8        2.53369   0.00190   0.00231   0.00201   0.00431   2.53800
    a8        1.85454   0.00057   0.00237  -0.00137   0.00100   1.85554
    d8        3.14159   0.00000   0.00000   0.00000   0.00000   3.14159
         Item               Value     Threshold  Converged?
 Maximum Force            0.002223     0.000002     NO 
 RMS     Force            0.000995     0.000001     NO 
 Maximum Displacement     0.004824     0.000006     NO 
 RMS     Displacement     0.002278     0.000004     NO 
 Predicted change in Energy=-1.916985D-05
 GradGradGradGradGradGradGradGradGradGradGradGradGradGradGradGradGradGrad

 ---------------------------------------------------------------------------------------------------
                            Z-MATRIX (ANGSTROMS AND DEGREES)
   CD    Cent   Atom    N1       Length/X        N2       Alpha/Y        N3        Beta/Z          J
 ---------------------------------------------------------------------------------------------------
      1      1  C 
      2      2  C        1   1.563128(     1)
      3      3  Cl       1   1.765844(     2)      2  113.351(     8)
      4      4  F        1   1.334896(     3)      2  108.264(     9)      3  238.391(    14)      0
      5      5  F        1   1.334896(     4)      2  108.264(    10)      3  121.609(    15)      0
      6      6  Cl       2   1.769178(     5)      1  110.853(    11)      3   62.075(    16)      0
      7      7  Cl       2   1.769178(     6)      1  110.853(    12)      3  297.925(    17)      0
      8      8  F        2   1.343052(     7)      1  106.315(    13)      3  180.000(    18)      0
 ---------------------------------------------------------------------------------------------------
                         Z-Matrix orientation:                         
 ---------------------------------------------------------------------
 Center     Atomic      Atomic             Coordinates (Angstroms)
 Number     Number       Type             X           Y           Z
 ---------------------------------------------------------------------
      1          6           0        0.000000    0.000000    0.000000
      2          6           0        0.000000    0.000000    1.563128
      3         17           0        1.621212    0.000000   -0.699911
      4          9           0       -0.664394    1.079587   -0.418352
      5          9           0       -0.664394   -1.079587   -0.418352
      6         17           0        0.774255    1.460785    2.192912
      7         17           0        0.774255   -1.460785    2.192912
      8          9           0       -1.288973   -0.000000    1.940407
 ---------------------------------------------------------------------
                    Distance matrix (angstroms):
                    1          2          3          4          5
     1  C    0.000000
     2  C    1.563128   0.000000
     3  Cl   1.765844   2.783823   0.000000
     4  F    1.334896   2.352274   2.543380   0.000000
     5  F    1.334896   2.352274   2.543380   2.159174   0.000000
     6  Cl   2.746311   1.769178   3.349575   3.005615   3.916874
     7  Cl   2.746311   1.769178   3.349575   3.916874   3.005615
     8  F    2.329513   1.343052   3.929434   2.668211   2.668211
                    6          7          8
     6  Cl   0.000000
     7  Cl   2.921570   0.000000
     8  F    2.540583   2.540583   0.000000
 Stoichiometry    C2Cl3F3
 Framework group  CS[SG(C2ClF),X(Cl2F2)]
 Deg. of freedom    11
 Full point group                 CS      NOp   2
 Largest Abelian subgroup         CS      NOp   2
 Largest concise Abelian subgroup CS      NOp   2
                         Standard orientation:                         
 ---------------------------------------------------------------------
 Center     Atomic      Atomic             Coordinates (Angstroms)
 Number     Number       Type             X           Y           Z
 ---------------------------------------------------------------------
      1          6           0        0.144387    0.960342    0.000000
      2          6           0       -0.609901   -0.408752   -0.000000
      3         17           0        1.902098    0.791054    0.000000
      4          9           0       -0.235658    1.647367    1.079587
      5          9           0       -0.235658    1.647367   -1.079587
      6         17           0       -0.235658   -1.333977    1.460785
      7         17           0       -0.235658   -1.333977   -1.460785
      8          9           0       -1.920927   -0.117204    0.000000
 ---------------------------------------------------------------------
 Rotational constants (GHZ):           1.4259909           1.0750500           1.0052432
 Basis read from rwf:  (5D, 7F)
 There are   129 symmetry adapted cartesian basis functions of A'  symmetry.
 There are    83 symmetry adapted cartesian basis functions of A"  symmetry.
 There are   117 symmetry adapted basis functions of A'  symmetry.
 There are    79 symmetry adapted basis functions of A"  symmetry.
   196 basis functions,   432 primitive gaussians,   212 cartesian basis functions
    45 alpha electrons       45 beta electrons
       nuclear repulsion energy       701.9873035487 Hartrees.
 NAtoms=    8 NActive=    8 NUniq=    6 SFac= 1.78D+00 NAtFMM=   60 NAOKFM=F Big=F
 Integral buffers will be    131072 words long.
 Raffenetti 2 integral format.
 Two-electron integral symmetry is turned on.
 Nuclear repulsion after empirical dispersion term =      701.9845398950 Hartrees.
 One-electron integrals computed using PRISM.
 NBasis=   196 RedAO= T EigKep=  1.66D-04  NBF=   117    79
 NBsUse=   196 1.00D-06 EigRej= -1.00D+00 NBFU=   117    79
 Initial guess from the checkpoint file:  "checkpoint.chk"
 B after Tr=     0.000000   -0.000000    0.000000
         Rot=    1.000000    0.000000    0.000000   -0.000202 Ang=  -0.02 deg.
 Initial guess orbital symmetries:
       Occupied  (A") (A') (A') (A') (A") (A') (A') (A') (A") (A')
                 (A') (A") (A') (A') (A") (A') (A') (A") (A') (A")
                 (A') (A') (A") (A') (A') (A") (A') (A') (A') (A")
                 (A') (A") (A') (A') (A") (A") (A') (A") (A') (A')
                 (A") (A') (A') (A") (A")
       Virtual   (A') (A') (A") (A') (A') (A') (A") (A') (A') (A")
                 (A") (A') (A') (A') (A') (A") (A") (A") (A') (A')
                 (A") (A') (A') (A') (A") (A') (A") (A') (A") (A')
                 (A") (A') (A') (A") (A') (A') (A') (A') (A") (A")
                 (A') (A") (A") (A') (A') (A") (A') (A") (A") (A')
                 (A') (A') (A") (A') (A') (A') (A") (A') (A") (A')
                 (A") (A') (A') (A") (A') (A') (A") (A') (A") (A')
                 (A") (A') (A') (A") (A") (A") (A') (A') (A') (A')
                 (A") (A') (A") (A') (A") (A') (A") (A") (A') (A")
                 (A') (A") (A') (A') (A') (A") (A') (A") (A') (A")
                 (A") (A') (A') (A") (A") (A') (A") (A') (A') (A')
                 (A") (A') (A') (A") (A') (A') (A") (A") (A') (A')
                 (A') (A") (A') (A') (A") (A') (A") (A') (A") (A')
                 (A') (A") (A') (A") (A") (A") (A') (A') (A") (A')
                 (A") (A') (A") (A') (A') (A') (A") (A') (A') (A")
                 (A')
 Requested convergence on RMS density matrix=1.00D-08 within 128 cycles.
 Requested convergence on MAX density matrix=1.00D-06.
 Requested convergence on             energy=1.00D-06.
 No special actions if energy rises.
 SCF Done:  E(RwB97XD) =  -1756.15946902     A.U. after    9 cycles
            NFock=  9  Conv=0.35D-08     -V/T= 2.0012
 DoSCS=F DFT=T ScalE2(SS,OS)=  1.000000  1.000000
 Range of M.O.s used for correlation:     1   196
 NBasis=   196 NAE=    45 NBE=    45 NFC=     0 NFV=     0
 NROrb=    196 NOA=    45 NOB=    45 NVA=   151 NVB=   151

 **** Warning!!: The largest alpha MO coefficient is  0.20734334D+02

 Symmetrizing basis deriv contribution to polar:
 IMax=3 JMax=2 DiffMx= 0.00D+00
 G2DrvN: will do     9 centers at a time, making    1 passes.
 Calling FoFCou, ICntrl=  3107 FMM=F I1Cent=   0 AccDes= 0.00D+00.
 End of G2Drv F.D. properties file   721 does not exist.
 End of G2Drv F.D. properties file   722 does not exist.
 End of G2Drv F.D. properties file   788 does not exist.
          IDoAtm=11111111
          Differentiating once with respect to electric field.
                with respect to dipole field.
          Differentiating once with respect to nuclear coordinates.
 CalDSu exits because no D1Ps are significant.
          There are    21 degrees of freedom in the 1st order CPHF.  IDoFFX=4 NUNeed=    21.
     21 vectors produced by pass  0 Test12= 3.24D-14 4.76D-09 XBig12= 3.12D+01 1.91D+00.
 AX will form    21 AO Fock derivatives at one time.
     21 vectors produced by pass  1 Test12= 3.24D-14 4.76D-09 XBig12= 4.18D+00 3.98D-01.
     21 vectors produced by pass  2 Test12= 3.24D-14 4.76D-09 XBig12= 3.35D-01 8.48D-02.
     21 vectors produced by pass  3 Test12= 3.24D-14 4.76D-09 XBig12= 2.68D-02 2.10D-02.
     21 vectors produced by pass  4 Test12= 3.24D-14 4.76D-09 XBig12= 3.55D-04 3.61D-03.
     21 vectors produced by pass  5 Test12= 3.24D-14 4.76D-09 XBig12= 3.78D-06 3.30D-04.
     21 vectors produced by pass  6 Test12= 3.24D-14 4.76D-09 XBig12= 3.99D-08 3.30D-05.
     18 vectors produced by pass  7 Test12= 3.24D-14 4.76D-09 XBig12= 3.29D-10 2.73D-06.
      4 vectors produced by pass  8 Test12= 3.24D-14 4.76D-09 XBig12= 2.32D-12 1.88D-07.
      3 vectors produced by pass  9 Test12= 3.24D-14 4.76D-09 XBig12= 1.47D-14 1.27D-08.
 InvSVY:  IOpt=1 It=  1 EMax= 4.44D-15
 Solved reduced A of dimension   172 with    21 vectors.
 Isotropic polarizability for W=    0.000000       69.08 Bohr**3.
 End of Minotr F.D. properties file   721 does not exist.
 End of Minotr F.D. properties file   722 does not exist.
 End of Minotr F.D. properties file   788 does not exist.
 Calling FoFJK, ICntrl=    100127 FMM=F ISym2X=1 I1Cent= 0 IOpClX= 0 NMat=1 NMatS=1 NMatT=0.
 ***** Axes restored to original set *****
 -------------------------------------------------------------------
 Center     Atomic                   Forces (Hartrees/Bohr)
 Number     Number              X              Y              Z
 -------------------------------------------------------------------
      1        6          -0.000035805   -0.000000000    0.000080167
      2        6          -0.000068285   -0.000000000   -0.000107917
      3       17           0.000019267    0.000000000   -0.000009536
      4        9           0.000016764   -0.000028010    0.000009379
      5        9           0.000016764    0.000028010    0.000009379
      6       17           0.000010415    0.000014937    0.000009689
      7       17           0.000010415   -0.000014937    0.000009689
      8        9           0.000030465    0.000000000   -0.000000849
 -------------------------------------------------------------------
 Cartesian Forces:  Max     0.000107917 RMS     0.000034500
 -----------------------------------------------------------------------------------------------
                       Internal Coordinate Forces (Hartree/Bohr or radian)
  Cent   Atom   N1       Length/X         N2         Alpha/Y        N3         Beta/Z          J
 -----------------------------------------------------------------------------------------------
      1  C 
      2  C        1  -0.000089(     1)
      3  Cl       1   0.000021(     2)      2   0.000004(     8)
      4  F        1  -0.000034(     3)      2   0.000003(     9)      3  -0.000001(    14)     0
      5  F        1  -0.000034(     4)      2   0.000003(    10)      3   0.000001(    15)     0
      6  Cl       2   0.000020(     5)      1   0.000009(    11)      3  -0.000007(    16)     0
      7  Cl       2   0.000020(     6)      1   0.000009(    12)      3   0.000007(    17)     0
      8  F        2  -0.000029(     7)      1   0.000020(    13)      3  -0.000000(    18)     0
 -----------------------------------------------------------------------------------------------
 Internal  Forces:  Max     0.000089388 RMS     0.000027002

 GradGradGradGradGradGradGradGradGradGradGradGradGradGradGradGradGradGrad
 Berny optimization.
 Search for a local minimum.
 Step number   3 out of a maximum of   28
 All quantities printed in internal units (Hartrees-Bohrs-Radians)
 Second derivative matrix not updated -- analytic derivatives used.
 DE= -1.93D-05 DEPred=-1.92D-05 R= 1.01D+00
 TightC=F SS=  1.41D+00  RLast= 9.67D-03 DXNew= 8.0095D-01 2.8998D-02
 Trust test= 1.01D+00 RLast= 9.67D-03 DXMaxT set to 4.76D-01
 The second derivative matrix:
                          r2        r3        a3        r4        a4
           r2           0.26042
           r3           0.01500   0.23043
           a3           0.04768  -0.00191   0.43538
           r4           0.02035   0.04036  -0.03615   0.41086
           a4           0.04458  -0.03943   0.13322   0.00343   0.45410
           d4          -0.00066  -0.04946   0.08540   0.01094  -0.01767
           r5           0.02035   0.04036  -0.03615   0.05371  -0.03635
           a5           0.04458  -0.03943   0.13322  -0.03635   0.13539
           d5           0.00066   0.04946  -0.08540  -0.06754   0.10211
           r6           0.01413   0.00292   0.00506   0.00246   0.00218
           a6           0.04407   0.00563   0.03008  -0.00029   0.01571
           d6           0.00181   0.00002   0.02137   0.00560  -0.01262
           r7           0.01413   0.00292   0.00506   0.00256   0.01278
           a7           0.04407   0.00563   0.03008   0.01483   0.03032
           d7          -0.00181  -0.00002  -0.02137   0.00023  -0.00227
           r8           0.01889   0.00261   0.01377   0.00358  -0.00569
           a8           0.03972   0.01321   0.02967  -0.00494   0.00079
           d8          -0.00000   0.00000   0.00000  -0.00839   0.00492
                          d4        r5        a5        d5        r6
           d4           0.44409
           r5           0.06754   0.41086
           a5          -0.10211   0.00343   0.45410
           d5          -0.25357  -0.01094   0.01767   0.44409
           r6           0.00224   0.00256   0.01278   0.00042   0.22372
           a6          -0.01232   0.01483   0.03032   0.00202   0.00395
           d6           0.00670  -0.00023   0.00227   0.00364  -0.00502
           r7          -0.00042   0.00246   0.00218  -0.00224   0.02950
           a7          -0.00202  -0.00029   0.01571   0.01232  -0.03568
           d7           0.00364  -0.00560   0.01262   0.00670  -0.04554
           r8          -0.01001   0.00358  -0.00569   0.01001   0.04014
           a8           0.00651  -0.00494   0.00079  -0.00651  -0.03228
           d8           0.00561   0.00839  -0.00492   0.00561   0.05231
                          a6        d6        r7        a7        d7
           a6           0.42431
           d6           0.00468   0.38743
           r7          -0.03568   0.04554   0.22372
           a7           0.12607  -0.08850   0.00395   0.42431
           d7           0.08850  -0.16221   0.00502  -0.00468   0.38743
           r8          -0.03029  -0.05735   0.04014  -0.03029   0.05735
           a8           0.11260   0.09334  -0.03228   0.11260  -0.09334
           d8          -0.08095  -0.20324  -0.05231   0.08095  -0.20324
                          r8        a8        d8
           r8           0.39378
           a8           0.01290   0.43164
           d8          -0.00000  -0.00000   0.42169
 ITU=  1  1  0
     Eigenvalues ---    0.01738   0.12216   0.14654   0.14762   0.17931
     Eigenvalues ---    0.22512   0.27376   0.28245   0.28584   0.35613
     Eigenvalues ---    0.38667   0.42279   0.46969   0.63701   0.64608
     Eigenvalues ---    0.69443   0.75756   0.81185
 RFO step:  Lambda=-3.67633270D-08 EMin= 1.73775831D-02
 Quintic linear search produced a step of -0.02089.
 Variable       Old X    -DE/DX   Delta X   Delta X   Delta X     New X
                                 (Linear)    (Quad)   (Total)
    r2        2.95388  -0.00009  -0.00010  -0.00028  -0.00038   2.95350
    r3        3.33696   0.00002   0.00002   0.00014   0.00016   3.33712
    a3        1.97835   0.00000  -0.00001   0.00001   0.00000   1.97835
    r4        2.52259  -0.00003  -0.00010   0.00003  -0.00007   2.52252
    a4        1.88956   0.00000  -0.00001   0.00005   0.00004   1.88960
    d4        4.16071  -0.00000   0.00001   0.00001   0.00002   4.16073
    r5        2.52259  -0.00003  -0.00010   0.00003  -0.00007   2.52252
    a5        1.88956   0.00000  -0.00001   0.00005   0.00004   1.88960
    d5        2.12247   0.00000  -0.00001  -0.00001  -0.00002   2.12245
    r6        3.34326   0.00002  -0.00002   0.00016   0.00014   3.34340
    a6        1.93475   0.00001   0.00000   0.00001   0.00002   1.93477
    d6        1.08342  -0.00001  -0.00000  -0.00004  -0.00005   1.08337
    r7        3.34326   0.00002  -0.00002   0.00016   0.00014   3.34340
    a7        1.93475   0.00001   0.00000   0.00001   0.00002   1.93477
    d7        5.19977   0.00001   0.00000   0.00004   0.00005   5.19981
    r8        2.53800  -0.00003  -0.00009  -0.00001  -0.00010   2.53791
    a8        1.85554   0.00002  -0.00002   0.00013   0.00011   1.85565
    d8        3.14159  -0.00000  -0.00000  -0.00000  -0.00000   3.14159
         Item               Value     Threshold  Converged?
 Maximum Force            0.000089     0.000002     NO 
 RMS     Force            0.000027     0.000001     NO 
 Maximum Displacement     0.000385     0.000006     NO 
 RMS     Displacement     0.000118     0.000004     NO 
 Predicted change in Energy=-2.708119D-08
 GradGradGradGradGradGradGradGradGradGradGradGradGradGradGradGradGradGrad

 ---------------------------------------------------------------------------------------------------
                            Z-MATRIX (ANGSTROMS AND DEGREES)
   CD    Cent   Atom    N1       Length/X        N2       Alpha/Y        N3        Beta/Z          J
 ---------------------------------------------------------------------------------------------------
      1      1  C 
      2      2  C        1   1.562924(     1)
      3      3  Cl       1   1.765926(     2)      2  113.351(     8)
      4      4  F        1   1.334859(     3)      2  108.266(     9)      3  238.392(    14)      0
      5      5  F        1   1.334859(     4)      2  108.266(    10)      3  121.608(    15)      0
      6      6  Cl       2   1.769251(     5)      1  110.854(    11)      3   62.073(    16)      0
      7      7  Cl       2   1.769251(     6)      1  110.854(    12)      3  297.927(    17)      0
      8      8  F        2   1.343002(     7)      1  106.321(    13)      3  180.000(    18)      0
 ---------------------------------------------------------------------------------------------------
                         Z-Matrix orientation:                         
 ---------------------------------------------------------------------
 Center     Atomic      Atomic             Coordinates (Angstroms)
 Number     Number       Type             X           Y           Z
 ---------------------------------------------------------------------
      1          6           0        0.000000    0.000000    0.000000
      2          6           0        0.000000    0.000000    1.562924
      3         17           0        1.621287    0.000000   -0.699947
      4          9           0       -0.664344    1.079558   -0.418389
      5          9           0       -0.664344   -1.079558   -0.418389
      6         17           0        0.774348    1.460800    2.192764
      7         17           0        0.774348   -1.460800    2.192764
      8          9           0       -1.288883   -0.000000    1.940327
 ---------------------------------------------------------------------
                    Distance matrix (angstroms):
                    1          2          3          4          5
     1  C    0.000000
     2  C    1.562924   0.000000
     3  Cl   1.765926   2.783731   0.000000
     4  F    1.334859   2.352106   2.543389   0.000000
     5  F    1.334859   2.352106   2.543389   2.159115   0.000000
     6  Cl   2.746227   1.769251   3.349480   3.005545   3.916806
     7  Cl   2.746227   1.769251   3.349480   3.916806   3.005545
     8  F    2.329397   1.343002   3.929394   2.668153   2.668153
                    6          7          8
     6  Cl   0.000000
     7  Cl   2.921599   0.000000
     8  F    2.540587   2.540587   0.000000
 Stoichiometry    C2Cl3F3
 Framework group  CS[SG(C2ClF),X(Cl2F2)]
 Deg. of freedom    11
 Full point group                 CS      NOp   2
 Largest Abelian subgroup         CS      NOp   2
 Largest concise Abelian subgroup CS      NOp   2
                         Standard orientation:                         
 ---------------------------------------------------------------------
 Center     Atomic      Atomic             Coordinates (Angstroms)
 Number     Number       Type             X           Y           Z
 ---------------------------------------------------------------------
      1          6           0        0.144313    0.960290   -0.000000
      2          6           0       -0.609919   -0.408602   -0.000000
      3         17           0        1.902101    0.790944    0.000000
      4          9           0       -0.235650    1.647335    1.079558
      5          9           0       -0.235650    1.647335   -1.079558
      6         17           0       -0.235650   -1.333933    1.460800
      7         17           0       -0.235650   -1.333933   -1.460800
      8          9           0       -1.920918   -0.117166   -0.000000
 ---------------------------------------------------------------------
 Rotational constants (GHZ):           1.4259752           1.0751000           1.0052925
 Basis read from rwf:  (5D, 7F)
 There are   129 symmetry adapted cartesian basis functions of A'  symmetry.
 There are    83 symmetry adapted cartesian basis functions of A"  symmetry.
 There are   117 symmetry adapted basis functions of A'  symmetry.
 There are    79 symmetry adapted basis functions of A"  symmetry.
   196 basis functions,   432 primitive gaussians,   212 cartesian basis functions
    45 alpha electrons       45 beta electrons
       nuclear repulsion energy       701.9962884384 Hartrees.
 NAtoms=    8 NActive=    8 NUniq=    6 SFac= 1.78D+00 NAtFMM=   60 NAOKFM=F Big=F
 Integral buffers will be    131072 words long.
 Raffenetti 2 integral format.
 Two-electron integral symmetry is turned on.
 Nuclear repulsion after empirical dispersion term =      701.9935249870 Hartrees.
 One-electron integrals computed using PRISM.
 NBasis=   196 RedAO= T EigKep=  1.66D-04  NBF=   117    79
 NBsUse=   196 1.00D-06 EigRej= -1.00D+00 NBFU=   117    79
 Initial guess from the checkpoint file:  "checkpoint.chk"
 B after Tr=    -0.000000    0.000000   -0.000000
         Rot=    1.000000   -0.000000   -0.000000    0.000010 Ang=   0.00 deg.
 Initial guess orbital symmetries:
       Occupied  (A") (A') (A') (A') (A") (A') (A') (A') (A") (A')
                 (A') (A") (A') (A') (A") (A') (A') (A") (A') (A")
                 (A') (A') (A") (A') (A') (A") (A') (A') (A') (A")
                 (A') (A") (A') (A') (A") (A") (A') (A") (A') (A')
                 (A") (A') (A') (A") (A")
       Virtual   (A') (A') (A") (A') (A') (A') (A") (A') (A') (A")
                 (A") (A') (A') (A') (A') (A") (A") (A") (A') (A')
                 (A") (A') (A') (A') (A") (A') (A") (A') (A") (A')
                 (A") (A') (A') (A") (A') (A') (A') (A') (A") (A")
                 (A') (A") (A") (A') (A') (A") (A') (A") (A") (A')
                 (A') (A') (A") (A') (A') (A') (A") (A') (A") (A')
                 (A") (A') (A') (A") (A') (A') (A") (A') (A") (A')
                 (A") (A') (A') (A") (A") (A") (A') (A') (A') (A')
                 (A") (A') (A") (A') (A") (A') (A") (A') (A") (A")
                 (A') (A") (A') (A') (A') (A") (A') (A") (A') (A")
                 (A") (A') (A') (A") (A") (A') (A") (A') (A') (A')
                 (A") (A') (A') (A") (A') (A') (A") (A") (A') (A')
                 (A') (A") (A') (A') (A") (A') (A") (A') (A") (A')
                 (A') (A") (A') (A") (A") (A") (A') (A') (A") (A')
                 (A") (A') (A') (A") (A') (A') (A") (A') (A') (A")
                 (A')
 Requested convergence on RMS density matrix=1.00D-08 within 128 cycles.
 Requested convergence on MAX density matrix=1.00D-06.
 Requested convergence on             energy=1.00D-06.
 No special actions if energy rises.
 SCF Done:  E(RwB97XD) =  -1756.15946905     A.U. after    6 cycles
            NFock=  6  Conv=0.60D-08     -V/T= 2.0012
 DoSCS=F DFT=T ScalE2(SS,OS)=  1.000000  1.000000
 Range of M.O.s used for correlation:     1   196
 NBasis=   196 NAE=    45 NBE=    45 NFC=     0 NFV=     0
 NROrb=    196 NOA=    45 NOB=    45 NVA=   151 NVB=   151

 **** Warning!!: The largest alpha MO coefficient is  0.20742001D+02

 Symmetrizing basis deriv contribution to polar:
 IMax=3 JMax=2 DiffMx= 0.00D+00
 G2DrvN: will do     9 centers at a time, making    1 passes.
 Calling FoFCou, ICntrl=  3107 FMM=F I1Cent=   0 AccDes= 0.00D+00.
 End of G2Drv F.D. properties file   721 does not exist.
 End of G2Drv F.D. properties file   722 does not exist.
 End of G2Drv F.D. properties file   788 does not exist.
          IDoAtm=11111111
          Differentiating once with respect to electric field.
                with respect to dipole field.
          Differentiating once with respect to nuclear coordinates.
 CalDSu exits because no D1Ps are significant.
          There are    21 degrees of freedom in the 1st order CPHF.  IDoFFX=4 NUNeed=    21.
     21 vectors produced by pass  0 Test12= 3.24D-14 4.76D-09 XBig12= 3.12D+01 1.91D+00.
 AX will form    21 AO Fock derivatives at one time.
     21 vectors produced by pass  1 Test12= 3.24D-14 4.76D-09 XBig12= 4.18D+00 3.98D-01.
     21 vectors produced by pass  2 Test12= 3.24D-14 4.76D-09 XBig12= 3.35D-01 8.48D-02.
     21 vectors produced by pass  3 Test12= 3.24D-14 4.76D-09 XBig12= 2.68D-02 2.10D-02.
     21 vectors produced by pass  4 Test12= 3.24D-14 4.76D-09 XBig12= 3.55D-04 3.61D-03.
     21 vectors produced by pass  5 Test12= 3.24D-14 4.76D-09 XBig12= 3.79D-06 3.30D-04.
     21 vectors produced by pass  6 Test12= 3.24D-14 4.76D-09 XBig12= 4.00D-08 3.30D-05.
     18 vectors produced by pass  7 Test12= 3.24D-14 4.76D-09 XBig12= 3.29D-10 2.73D-06.
      4 vectors produced by pass  8 Test12= 3.24D-14 4.76D-09 XBig12= 2.32D-12 1.88D-07.
      3 vectors produced by pass  9 Test12= 3.24D-14 4.76D-09 XBig12= 1.47D-14 1.27D-08.
 InvSVY:  IOpt=1 It=  1 EMax= 3.55D-15
 Solved reduced A of dimension   172 with    21 vectors.
 Isotropic polarizability for W=    0.000000       69.08 Bohr**3.
 End of Minotr F.D. properties file   721 does not exist.
 End of Minotr F.D. properties file   722 does not exist.
 End of Minotr F.D. properties file   788 does not exist.
 Calling FoFJK, ICntrl=    100127 FMM=F ISym2X=1 I1Cent= 0 IOpClX= 0 NMat=1 NMatS=1 NMatT=0.
 ***** Axes restored to original set *****
 -------------------------------------------------------------------
 Center     Atomic                   Forces (Hartrees/Bohr)
 Number     Number              X              Y              Z
 -------------------------------------------------------------------
      1        6           0.000011258    0.000000000   -0.000000228
      2        6          -0.000011278    0.000000000    0.000000095
      3       17          -0.000000059    0.000000000    0.000000022
      4        9           0.000000029   -0.000000087    0.000000056
      5        9           0.000000029    0.000000087    0.000000056
      6       17           0.000000011    0.000000055   -0.000000000
      7       17           0.000000011   -0.000000055   -0.000000000
      8        9           0.000000000    0.000000000   -0.000000001
 -------------------------------------------------------------------
 Cartesian Forces:  Max     0.000011278 RMS     0.000003253
 -----------------------------------------------------------------------------------------------
                       Internal Coordinate Forces (Hartree/Bohr or radian)
  Cent   Atom   N1       Length/X         N2         Alpha/Y        N3         Beta/Z          J
 -----------------------------------------------------------------------------------------------
      1  C 
[...]
 .00025877,-0.00073223,0.00974442,0.02205262,-0.00025109,-0.00051338,-0
 .00153110,-0.00382251,-0.00698371,-0.00413419,0.00020776,-0.00025370,-
 0.00059240,0.00000494,-0.00005630,-0.00003247,-0.00016292,-0.00022215,
 -0.00026197,0.00396178,0.00818058,0.00680376,-0.00064481,0.00016946,0.
 00047788,-0.00296486,0.01008538,-0.00417857,0.00004716,-0.00023637,0.0
 0036174,-0.00004209,0.00015302,-0.00032574,0.00005335,-0.00002599,-0.0
 0002712,-0.00004989,-0.00022011,-0.00005733,0.00299886,0.00103972,-0.0
 0099942,0.00128681,0.00910907,-0.02203514,0.00508190,-0.00033256,-0.00
 014892,0.00049087,0.00018672,-0.00025512,0.00072944,0.00005233,0.00017
 482,0.00011508,0.00021350,0.00118525,0.00001818,-0.00973818,0.02206298
 ,-0.00023866,0.00051367,-0.00151612,-0.00383101,0.00698103,-0.00414598
 ,0.00021182,0.00025019,-0.00060036,-0.00017110,0.00021535,-0.00025616,
 -0.00000909,0.00006225,-0.00003160,-0.00004912,-0.00002548,-0.00003448
 ,0.00397570,-0.00816808,0.00680808,-0.00150034,-0.00000174,0.00540396,
 0.01944375,0.00001495,-0.01320046,-0.00050111,-0.00000603,0.00031984,-
 0.00008093,-0.00003175,0.00023847,-0.00008168,0.00003396,0.00022806,0.
 00061660,0.00051606,0.00012414,0.00060896,-0.00052247,0.00011241,-0.01
 850017,0.00000398,0.00055975,0.00001276,0.00002224,0.00085634,-0.00000
 169,-0.00000042,0.00002722,-0.00000494,-0.00010959,-0.00011067,0.00025
 084,0.00009508,-0.00009605,-0.00025598,0.00017978,0.00000846,-0.000157
 34,-0.00017782,0.00000336,0.00016136,-0.00000764,-0.00125537,-0.002723
 12,0.00000915,0.00035423,-0.00514094,0.00001063,0.00455777,0.00097084,
 -0.00000142,-0.00033073,0.00025125,0.00016421,-0.00040177,0.00027127,-
 0.00017137,-0.00038922,-0.00019593,-0.00045657,-0.00020932,-0.00021425
 ,0.00045431,-0.00022015,0.00678301,-0.00000632,-0.00336082,0.00055358,
 0.00000637,0.00093963,-0.00170037,0.00000550,-0.02397008,0.00087453,0.
 00002105,0.00184268,0.00498818,-0.00000971,-0.00088927,-0.00001059,-0.
 00003019,0.15936407,0.00485255,0.00001989,0.02080194,0.06116316,-0.000
 00982,0.00960013,0.00010657,0.00000105,-0.00081298,0.00042469,0.000001
 70,-0.00095758,-0.00061550,0.00001983,0.00024117,-0.00000331,-0.000002
 68,0.00130777,0.00000085,0.00000287,-0.00107387,0.00038265,0.00000765,
 0.00045447,-0.00209952,-0.00000019,0.00418606,0.00073489,0.00000307,-0
 .00272658,-0.00014749,0.00082077,0.00046590,-0.00001125,0.00017560,-0.
 00154741,0.00013902,-0.00003438,-0.00019449,0.00018879,0.00038146,0.00
 035198,-0.00110780,0.00003684,0.00035991,0.00093575,-0.00007188,-0.000
 00430,0.00015256,-0.00072239,-0.00112773,-0.00136717,0.00197591,0.0008
 6560,0.00000047,-0.00138990,-0.00113036,0.00022189,-0.00007301,0.00004
 692,0.00150946,-0.00066159,0.00079339,-0.00013619,-0.00081279,0.000462
 04,-0.00002089,-0.00016772,-0.00155438,0.00013150,0.00001826,-0.000188
 59,-0.00015167,0.00024654,-0.00006707,0.00019366,-0.00038191,0.0003340
 7,0.00112021,-0.00004820,0.00034928,-0.00094615,0.00006515,0.00000456,
 -0.00016510,-0.00024659,0.00015793,-0.00023176,0.00071966,-0.00112574,
 -0.00136441,-0.00197152,0.00087976,0.00002006,0.00139428,-0.00114593,0
 .00022136,0.00007033,0.00005049,-0.00006063,0.00023499,0.00001867,0.00
 151092,0.00065495,0.00079283,-0.00007087,0.00015898,-0.00013620,-0.028
 32102,-0.05104606,-0.02461312,-0.00007120,0.00036566,0.00057670,0.0000
 0405,0.00008794,-0.00010983,0.00002191,0.00001194,-0.00013128,0.026735
 00,-0.00024687,-0.00056355,-0.00078547,-0.05328278,-0.07891900,-0.0453
 7758,0.00015791,-0.00024556,-0.00051433,-0.00010211,0.00032514,-0.0001
 6930,-0.00010800,-0.00000984,-0.00045224,0.05172691,0.08603974,0.00016
 662,0.00086237,0.00055312,-0.02420713,-0.04447868,-0.01763421,0.000272
 46,-0.00051184,-0.00103976,-0.00004711,0.00017299,-0.00018331,-0.00010
 176,-0.00008435,-0.00022807,0.02379174,0.04576908,0.01763378,-0.000077
 28,-0.00015966,-0.00010700,-0.02830713,0.05104269,-0.02461156,-0.00007
 090,-0.00037098,0.00056658,0.00001994,-0.00000544,-0.00013277,-0.00000
 008,-0.00008791,-0.00011338,0.00070065,0.00214024,0.00066974,0.0267430
 4,0.00024775,-0.00054360,0.00077909,0.05328255,-0.07893998,0.04537537,
 -0.00015997,-0.00024918,0.00051201,0.00011913,-0.00000608,0.00044922,0
 .00009762,0.00031474,0.00017209,-0.00214696,-0.00624529,-0.00158407,-0
 .05172051,0.08604899,0.00017843,-0.00086150,0.00056644,-0.02421538,0.0
 4447540,-0.01764573,0.00027678,0.00050894,-0.00104895,-0.00010979,0.00
 007734,-0.00022201,-0.00006077,-0.00016711,-0.00018178,0.00067790,0.00
 157667,0.00076419,0.02380524,-0.04575689,0.01763959,-0.00118309,-0.000
 00174,-0.00001404,0.05038501,0.00001489,-0.01273520,-0.00003828,-0.000
 00602,0.00022490,-0.00001624,0.00004585,-0.00006758,-0.00001695,-0.000
 04364,-0.00007790,0.00100640,-0.00029423,-0.00053972,0.00099791,0.0002
 8853,-0.00055138,-0.05112968,0.00000406,0.00023394,0.00001271,0.000022
 14,-0.00265283,-0.00000177,-0.00000045,-0.00000444,-0.00000493,-0.0000
 1357,-0.00006587,0.00008469,-0.00000093,-0.00005130,-0.00008983,0.0008
 3170,-0.00038676,-0.00013332,-0.00082903,-0.00039247,0.00013744,-0.000
 00829,0.00331276,-0.00122612,0.00000920,-0.00015404,-0.01252032,0.0000
 1089,0.00295398,0.00005673,-0.00000153,0.00007961,0.00000605,0.0001924
 9,-0.00019142,0.00002580,-0.00019966,-0.00017941,-0.00004595,-0.000064
 17,0.00014213,-0.00006445,0.00006169,0.00013107,0.01377036,-0.00000628
 ,-0.00278194,0.00163933,0.00000687,0.02320333,-0.00209385,0.00000502,0
 .09511754,0.01447654,0.00002235,-0.01061660,0.01114246,-0.00001148,0.0
 0884149,-0.00001097,-0.00002496,0.00931057,-0.01282283,0.00002067,-0.0
 8022196,-0.00999425,-0.00000705,0.09244496,-0.05817058,0.00000157,0.02
 243121,-0.00167647,0.00000254,0.00118779,0.06474951,0.00002056,0.00950
 565,-0.00000409,-0.00000471,0.00035716,-0.00000025,0.00000165,-0.01071
 818,0.02053803,0.00000892,0.01166794,0.00007017,0.00000148,0.00034072,
 -0.02288677,0.00000281,-0.01208609,0.02151286,-0.00275448,-0.00664719,
 0.00030325,-0.00038186,0.00062329,-0.00270370,-0.00039940,0.00126526,-
 0.01797345,-0.00758066,-0.02094221,0.02166475,0.00019467,-0.00003609,0
 .00033186,0.00190404,0.00028721,-0.00072250,0.00443706,0.01965447,-0.0
 0503283,0.02166060,-0.00934729,0.00049034,0.00098588,-0.00164292,-0.00
 045057,0.00003981,-0.00002487,0.00532234,-0.02158768,0.00941032,0.0215
 2592,0.00276271,-0.00664746,0.00028823,0.00038729,0.00061337,-0.002710
 12,0.00038542,0.00126826,-0.00126946,0.00117869,-0.00033173,-0.0179692
 2,0.00758023,-0.02095680,-0.02165011,-0.00020627,-0.00004514,-0.000342
 46,-0.00191008,0.00029669,0.00070911,-0.00117663,0.00097351,-0.0009154
 7,-0.00444359,0.01965347,-0.00502635,-0.02165367,-0.00932836,0.0004990
 0,-0.00098412,-0.00166449,-0.00045359,-0.00004061,-0.00002583,-0.00032
 291,0.00092116,0.00062806,0.00532581,0.02157609,0.00941100,-0.00014973
 ,0.00040891,0.00036760,-0.00122747,-0.00557033,-0.00193294,0.00019416,
 0.00000913,-0.00016763,0.00002343,-0.00010571,0.00010060,0.00005812,0.
 00016651,0.00015508,0.00133897,0.00064824,-0.00037680,-0.00166969,-0.0
 0516211,-0.01317555,-0.00291981,-0.00002785,0.00011560,0.00007225,0.00
 003570,-0.00004846,0.00015967,-0.00020020,0.00011290,0.00023624,0.0051
 5191,0.01309727,0.00082956,-0.00007764,-0.00205682,-0.00225155,-0.0042
 1305,-0.00113264,-0.00003393,0.00015917,0.00007958,0.00003113,-0.00018
 431,0.00012901,-0.00009489,0.00018193,0.00050723,0.00147206,0.00434825
 ,0.00281759,-0.00015470,-0.00041347,0.00039790,-0.00121650,0.00556706,
 -0.00193292,0.00019404,-0.00001545,-0.00017854,0.00005525,-0.00015843,
 0.00015254,0.00002147,0.00010659,0.00009960,-0.00009009,-0.00013257,-0
 .00009747,0.00134641,-0.00064585,-0.00035033,0.00166411,0.00515483,-0.
 01320065,0.00291383,0.00002435,0.00011551,-0.00007758,0.00021363,0.000
 11666,-0.00023934,-0.00003982,-0.00006342,-0.00015600,0.00012559,0.000
 70223,0.00005987,-0.00514171,0.01310541,0.00084285,0.00007644,-0.00204
 178,-0.00226019,0.00421061,-0.00114436,-0.00002943,-0.00016221,0.00007
 066,-0.00010208,-0.00018970,0.00051531,0.00001704,0.00019103,0.0001303
 0,-0.00009014,-0.00007025,-0.00020946,0.00148335,-0.00433217,0.0028207
 8,-0.00075990,-0.00000043,0.00280843,-0.02207792,0.00001293,0.02425493
 ,0.00012915,-0.00000467,0.00009436,0.00007698,0.00012923,-0.00026329,0
 .00007634,-0.00012828,-0.00027189,-0.00014249,-0.00032205,0.00014978,-
 0.00014947,0.00031713,0.00013958,0.02285237,0.00000306,0.00118005,0.00
 001131,0.00002494,0.00792817,-0.00000025,0.00000014,0.00001669,-0.0000
 0373,0.00002241,-0.00001409,-0.00011921,-0.00003786,0.00000250,0.00011
 395,-0.00019591,-0.00043239,-0.00026204,0.00019736,-0.00043777,0.00026
 655,-0.00000852,-0.00825013,0.00268761,0.00000715,-0.00379206,0.024047
 09,0.00000861,-0.00699342,0.00024885,-0.00000112,-0.00001972,-0.000147
 87,-0.00023687,0.00032989,-0.00012420,0.00023091,0.00034863,0.00010522
 ,-0.00017399,-0.00012677,0.00008788,0.00017579,-0.00013845,-0.02690246
 ,-0.00000787,0.01039187,-0.00298942,0.00000651,0.07366577,0.00937118,0
 .00000595,-0.03208457,0.00292248,0.00002098,-0.00414274,0.26367706,-0.
 00000944,0.00025477,-0.00001043,-0.00003208,-0.04603947,-0.00816168,0.
 00001989,0.02686661,-0.07959118,-0.00001130,-0.05747997,-0.00505626,0.
 00000098,0.00346000,0.00041233,0.00000154,0.00022195,0.00694567,0.0000
 1976,0.00266564,-0.00000336,-0.00000268,0.00128615,0.00000089,0.000001
 47,-0.00327483,0.00705523,0.00000755,-0.00250236,-0.00329172,-0.000000
 42,0.00547226,-0.00545833,0.00000352,0.00017536,0.00392323,0.01582059,
 -0.00562469,-0.00161246,0.00070761,0.00094033,-0.00119550,-0.00006772,
 0.00013128,-0.00234687,0.01360249,-0.03791641,0.01258658,0.00098020,-0
 .00048616,-0.00046506,0.00116865,0.00003053,-0.00034307,-0.01584941,0.
 03644698,-0.00583403,0.01367707,0.00316443,0.00018410,0.00003201,-0.00
 001944,0.00026454,-0.00012626,0.00019259,0.00521900,-0.01290751,-0.003
 12815,0.00393425,-0.01581271,-0.00562908,-0.00162209,-0.00069949,0.000
 93335,-0.00120030,0.00005279,0.00013728,0.00032664,0.00059392,0.000176
 27,-0.00234434,-0.01360307,-0.03793437,-0.01257432,-0.00099145,-0.0004
 9666,0.00045464,-0.00117411,0.00004010,0.00033055,-0.00059390,0.001699
 30,-0.00047017,0.01584511,0.03644781,-0.00583182,-0.01367294,0.0031777
 5,0.00020398,-0.00002747,-0.00003487,0.00026420,0.00012351,0.00019672,
 0.00018246,0.00047354,0.00009261,0.00522103,0.01290030,-0.00312790,-0.
 00002601,-0.00059953,-0.00015983,0.00110920,0.00009575,0.00064426,0.00
 003115,0.00033229,0.00039569,0.00002904,0.00008661,0.00005653,0.000008
 50,-0.00012001,-0.00024657,0.00012132,0.00034294,-0.00030973,0.0004255
 3,0.00182371,-0.00480881,-0.00099475,0.00042859,-0.00040360,-0.0011944
 4,-0.00018766,0.00028527,-0.00021026,-0.00007495,-0.00012017,-0.000249
 69,0.00153565,0.00559892,0.00086959,0.00058348,0.00065170,0.00097455,-
 0.00155946,-0.00055126,0.00055508,-0.00074242,-0.00151048,-0.00009047,
 0.00018251,-0.00005617,-0.00026896,-0.00035314,-0.00031587,-0.00028164
 ,0.00197451,0.00086184,-0.00003218,0.00059901,-0.00013004,0.00112193,-
 0.00009792,0.00064491,0.00003155,-0.00033729,0.00038531,0.00000637,0.0
 0012679,-0.00024844,0.00002470,-0.00008662,0.00005266,0.00016818,0.000
 17207,-0.00015464,0.00013061,-0.00034234,-0.00028982,-0.00043266,-0.00
 182207,-0.00483185,0.00099401,-0.00043023,-0.00040732,0.00119214,0.000
 08618,-0.00011681,0.00024744,0.00018322,0.00027489,0.00021312,-0.00017
 859,0.00053967,0.00024843,-0.00153104,0.00561124,0.00088195,-0.0005828
 1,0.00066643,0.00096567,0.00155771,-0.00056334,0.00055912,0.00073902,-
 0.00151898,-0.00027724,0.00034660,-0.00031021,-0.00010477,-0.00017642,
 -0.00005586,-0.00014630,-0.00025567,0.00012347,-0.00026674,-0.00196404
 ,0.00086785,-0.00275633,-0.00000177,0.00285525,-0.26599633,0.00001522,
 0.08436453,0.00003700,-0.00000609,0.00064841,0.00089471,-0.00071034,0.
 00016944,0.00089392,0.00071253,0.00015881,-0.00143643,-0.00404928,-0.0
 0159868,-0.00144466,0.00404301,-0.00161067,0.26981322,0.00000413,-0.00
 003149,0.00001302,0.00002212,0.05510198,-0.00000177,-0.00000054,0.0000
 3930,-0.00000508,0.00008076,0.00004830,-0.00025807,-0.00009525,0.00006
 281,0.00025268,-0.00116205,-0.00078687,-0.00032173,0.00116438,-0.00079
 237,0.00032590,-0.00000793,-0.05364863,0.00157177,0.00000932,0.0000572
 0,0.08468137,0.00001076,0.02629589,0.00014703,-0.00000143,-0.00050306,
 -0.00045869,0.00012313,0.00006185,-0.00043892,-0.00013041,0.00007397,-
 0.00025217,0.00048742,0.00080466,-0.00027063,-0.00048993,0.00079379,-0
 .08497766,-0.00000626,-0.02758433,0.13277515,0.00000674,0.20780856,0.1
 4451900,0.00000646,0.00400882,-0.00067577,0.00002098,0.00494108,0.0011
 8586,-0.00000963,-0.00026934,-0.00001058,-0.00003127,0.00026771,0.0044
 1022,0.00001977,0.01517426,-0.00241455,-0.00001040,-0.01770985,0.01729
 335,0.00000104,-0.00212109,-0.00078862,0.00000172,-0.00165295,-0.01432
 016,0.00001985,-0.00324956,-0.00000331,-0.00000260,0.00030633,0.000000
 88,0.00000334,0.00051803,-0.00427575,0.00000761,-0.00281277,0.00008353
 ,-0.00000026,0.00047780,0.00360775,0.00000314,-0.00010399,-0.07413573,
 0.13720583,-0.07291515,0.00019748,-0.00000344,-0.00042750,-0.00109021,
 -0.00020550,0.00043251,0.07307409,0.14273643,-0.10107742,0.08855045,0.
 00076990,-0.00042587,0.00127471,0.00137284,0.00096341,-0.00064346,-0.1
 4051665,0.10576922,-0.07251287,0.08677189,-0.00778895,-0.00108870,0.00
 021988,0.00055941,-0.00038588,-0.00047042,0.00099619,0.07290746,-0.087
 84865,0.00585498,-0.07412467,-0.13719794,-0.07291928,0.00018802,0.0000
 1150,-0.00043429,-0.00109885,0.00018867,0.00043875,0.00153954,-0.00402
 613,0.00060154,0.07307997,-0.14273703,-0.10109543,-0.08853814,-0.00078
 118,-0.00043655,-0.00128503,-0.00138016,0.00097204,0.00063107,0.004026
 00,-0.00600920,0.00190126,0.14051447,0.10577122,-0.07251044,-0.0867676
 2,-0.00777512,-0.00106851,-0.00021531,0.00054427,-0.00038613,0.0004677
 6,0.00099982,0.00060778,-0.00189815,0.00066271,0.07290840,0.08784175,0
 .00585398,-0.00018517,0.00005070,0.00011606,0.00005088,-0.00034297,0.0
 0016852,0.00010881,-0.00015001,-0.00028682,-0.00012844,0.00021932,0.00
 007147,0.00008060,0.00002305,-0.00004147,0.00001704,0.00005702,-0.0008
 2497,-0.00046954,-0.00015198,0.00026996,0.00045606,0.00020539,0.000230
 24,0.00012986,-0.00032241,0.00055563,-0.00033432,0.00017394,0.00011867
 ,-0.00004598,0.00000961,-0.00035223,0.00011188,-0.00014396,-0.00070573
 ,-0.00048285,-0.00112888,0.00026147,0.00027125,0.00040394,0.00037004,-
 0.00017872,0.00036958,-0.00015120,0.00003421,-0.00021589,-0.00020998,0
 .00012420,0.00046276,0.00049431,-0.00019106,-0.00005156,0.00014613,0.0
 0006403,0.00034018,0.00016950,0.00010911,0.00014489,-0.00029711,0.0000
 7847,-0.00001635,-0.00004334,-0.00013254,-0.00021932,0.00006805,-0.000
 07967,-0.00012287,-0.00002312,0.00002676,-0.00005655,-0.00080432,0.000
 46215,0.00015295,0.00024847,-0.00045758,-0.00020734,0.00022657,-0.0001
 3220,-0.00016275,0.00012194,0.00004345,0.00031797,0.00054528,0.0003369
 7,0.00011619,-0.00003302,0.00012049,-0.00000467,-0.00034175,0.00012467
 ,0.00014400,-0.00069017,-0.00049155,0.00112617,0.00024943,0.00027537,-
 0.00040702,0.00036111,0.00002589,0.00020927,-0.00020443,-0.00019245,-0
 .00036372,-0.00014982,-0.00001483,-0.00012783,-0.00003609,0.00013792,-
 0.00045058,0.00049902,-0.00083634,-0.00000175,-0.00176671,-0.00020975,
 0.00001510,0.00017750,-0.00020788,-0.00000609,0.00030023,0.00048999,-0
 .00054045,0.00043772,0.00048920,0.00054266,0.00042707,0.00014087,0.000
 14237,0.00014790,0.00013153,-0.00014766,0.00013598,0.00000745,0.000004
 15,-0.00038313,0.00001284,0.00002194,0.00001924,-0.00000188,-0.0000004
 7,0.00000878,-0.00000500,-0.00002463,0.00009330,-0.00029883,0.00001016
 ,0.00010770,0.00029363,0.00006421,0.00003065,0.00014415,-0.00006091,0.
 00002458,-0.00014000,-0.00000884,0.00009191,0.00005547,0.00000935,0.00
 058687,0.00050557,0.00001078,0.00042909,0.00040520,-0.00000148,-0.0002
 8631,-0.00043030,-0.00001703,0.00006880,-0.00041067,0.00000974,0.00008
 070,-0.00012724,-0.00008835,-0.00001504,-0.00014566,0.00008581,-0.0000
 2580,0.00014975,-0.00000621,-0.00083834,-0.02284405,0.00000617,0.12219
 224,0.00525188,0.00000513,0.13432331,0.02917864,0.00002123,0.00740483,
 0.02956012,-0.00000985,0.02803287,-0.00001044,-0.00003121,-0.04239069,
 0.00855020,0.00001993,-0.19325664,-0.00755843,-0.00001068,0.17052984,0
 .01017986,0.00000107,-0.01283403,0.00139277,0.00000171,0.00000229,-0.0
 1153255,0.00001991,-0.00012494,-0.00000328,-0.00000272,0.00144636,0.00
 000074,0.00000312,-0.00094988,-0.00821710,0.00000774,0.00773267,-0.002
 56585,-0.00000028,0.00369785,0.00951410,0.00000368,-0.00882277,-0.0077
 3297,0.04291268,0.00013809,-0.00096515,0.00003156,-0.00051854,0.000158
 27,-0.00013827,0.00010712,0.00689967,0.04107597,-0.07403154,0.00343291
 ,0.00114562,-0.00051493,0.00104307,-0.00001139,-0.00002860,0.00001509,
 -0.04182167,0.07044782,-0.00338892,0.00767229,0.02721469,-0.00009228,-
 0.00095152,-0.00334317,0.00134249,0.00006961,-0.00064986,0.00143480,-0
 .00586244,-0.02215435,-0.00772167,-0.04290480,0.00013403,-0.00097480,-
 0.00002364,-0.00052553,0.00014977,0.00012164,0.00011330,0.00052107,0.0
 0100445,0.00007276,0.00690518,-0.04107646,-0.07404958,-0.00342070,-0.0
 0115711,-0.00052547,-0.00105348,0.00000416,-0.00002004,-0.00002758,-0.
 00100443,0.00354495,-0.00036749,0.04181937,0.07044985,-0.00338592,-0.0
 0766807,0.02722855,-0.00007281,0.00095594,-0.00335901,0.00134211,-0.00
 007229,-0.00064617,0.00007920,0.00037093,-0.00146646,0.00143555,0.0058
 5554,-0.02215585,0.00004835,0.00091481,0.00100433,0.00003843,-0.000878
 84,0.00035998,-0.00001287,0.00023680,0.00041832,-0.00003715,0.00009095
 ,-0.00004753,-0.00003082,-0.00020712,-0.00002141,-0.00000231,0.0008550
 4,-0.00065736,-0.00037652,0.00025784,0.00055346,0.00307565,0.00023015,
 -0.00021177,-0.00067882,-0.00020032,0.00054841,-0.00014248,-0.00021796
 ,-0.00027791,-0.00015318,-0.00052543,-0.00097913,0.00093861,0.00058748
 ,-0.00096048,0.00060426,-0.00010990,0.00150898,0.00036044,-0.00030142,
 -0.00087546,-0.00002869,0.00028424,-0.00017403,-0.00028522,-0.00050991
 ,0.00015828,-0.00103593,-0.00064502,0.00123860,0.00004196,-0.00091538,
 0.00103319,0.00005174,0.00087653,0.00036098,-0.00001242,-0.00024189,0.
 00040795,-0.00003307,0.00021373,-0.00002323,-0.00004106,-0.00009092,-0
 .00005077,-0.00018367,-0.00012616,-0.00021914,0.00000522,-0.00085375,-
 0.00063801,0.00037049,-0.00025717,0.00053057,-0.00307702,-0.00023202,-
 0.00021507,0.00067586,0.00022928,-0.00027423,0.00015053,0.00019568,0.0
 0053809,0.00014501,0.00011952,0.00077078,0.00057860,0.00053130,-0.0009
 6769,0.00095035,-0.00058614,-0.00094758,0.00059543,0.00010759,0.001496
 95,0.00036436,0.00029787,-0.00088342,-0.00029352,0.00050320,0.00016390
 ,-0.00004209,-0.00027842,-0.00017207,-0.00021104,-0.00058596,-0.000331
 53,-0.00102116,0.00065621,0.00124412,-0.00123036,-0.00000174,-0.002132
 28,-0.05826962,0.00001494,-0.00067450,-0.00031703,-0.00000604,0.000225
 10,0.00121452,-0.00169874,0.00068931,0.00121361,0.00170100,0.00067880,
 0.00018519,-0.00028209,-0.00032950,0.00017798,0.00027529,-0.00034136,0
 .05703078,0.00000395,-0.00061932,0.00001274,0.00002225,0.01284780,-0.0
 0000168,-0.00000043,0.00007978,-0.00000493,-0.00001238,0.00029915,-0.0
 0058426,-0.00000210,0.00031382,0.00057915,0.00023942,0.00024868,0.0001
 2811,-0.00023782,0.00024365,-0.00012406,-0.00000727,-0.01342053,-0.000
 77692,0.00000912,-0.00133731,0.00166889,0.00001068,0.02271107,-0.00007
 839,-0.00000141,0.00044911,-0.00089648,0.00020972,0.00040682,-0.000876
 61,-0.00021692,0.00041930,-0.00045676,-0.00051102,-0.00055627,-0.00047
 547,0.00050883,-0.00056710,0.00189387,-0.00000639,-0.02152565\\@
 The archive entry for this job was punched.


     "IF I COULD JUST GET IT ON PAPER"
 LIFE AND INK, THEY RUN OUT AT THE SAME TIME,
 OR SO SAID MY OLD FRIEND THE SQUID.
     -- JIMMY BUFFETT, 1981
 Job cpu time:       0 days 13 hours 54 minutes 22.4 seconds.
 Elapsed time:       0 days 13 hours 42 minutes 41.9 seconds.
 File lengths (MBytes):  RWF=     90 Int=      0 D2E=      0 Chk=     44 Scr=      1
 Normal termination of Gaussian 16 at Tue Sep  8 14:47:25 2020.
