 Entering Gaussian System, Link 0=g16
 Input=CFC-114.gjf
 Output=CFC-114.log
 Initial command:
 /apps/gaussian/g16c01/g16/l1.exe "/jobfs/11276814.gadi-pbs/Gau-3005155.inp" -scrdir="/jobfs/11276814.gadi-pbs/"
 Entering Link 1 = /apps/gaussian/g16c01/g16/l1.exe PID=   3005157.
  
 Copyright (c) 1988-2019, Gaussian, Inc.  All Rights Reserved.
  
 This is part of the Gaussian(R) 16 program.  It is based on
 the Gaussian(R) 09 system (copyright 2009, Gaussian, Inc.),
 the Gaussian(R) 03 system (copyright 2003, Gaussian, Inc.),
 the Gaussian(R) 98 system (copyright 1998, Gaussian, Inc.),
 the Gaussian(R) 94 system (copyright 1995, Gaussian, Inc.),
 the Gaussian 92(TM) system (copyright 1992, Gaussian, Inc.),
 the Gaussian 90(TM) system (copyright 1990, Gaussian, Inc.),
 the Gaussian 88(TM) system (copyright 1988, Gaussian, Inc.),
 the Gaussian 86(TM) system (copyright 1986, Carnegie Mellon
 University), and the Gaussian 82(TM) system (copyright 1983,
 Carnegie Mellon University). Gaussian is a federally registered
 trademark of Gaussian, Inc.
  
 This software contains proprietary and confidential information,
 including trade secrets, belonging to Gaussian, Inc.
  
 This software is provided under written license and may be
 used, copied, transmitted, or stored only in accord with that
 written license.
  
 The following legend is applicable only to US Government
 contracts under FAR:
  
                    RESTRICTED RIGHTS LEGEND
  
 Use, reproduction and disclosure by the US Government is
 subject to restrictions as set forth in subparagraphs (a)
 and (c) of the Commercial Computer Software - Restricted
 Rights clause in FAR 52.227-19.
  
 Gaussian, Inc.
 340 Quinnipiac St., Bldg. 40, Wallingford CT 06492
  
  
 ---------------------------------------------------------------
 Warning -- This program may not be used in any manner that
 competes with the business of Gaussian, Inc. or will provide
 assistance to any competitor of Gaussian, Inc.  The licensee
 of this program is prohibited from giving any competitor of
 Gaussian, Inc. access to this program.  By using this program,
 the user acknowledges that Gaussian, Inc. is engaged in the
 business of creating and licensing software in the field of
 computational chemistry and represents and warrants to the
 licensee that it is not a competitor of Gaussian, Inc. and that
 it will not use this program in any manner prohibited above.
 ---------------------------------------------------------------
  

 Cite this work as:
 Gaussian 16, Revision C.01,
 M. J. Frisch, G. W. Trucks, H. B. Schlegel, G. E. Scuseria, 
 M. A. Robb, J. R. Cheeseman, G. Scalmani, V. Barone, 
 G. A. Petersson, H. Nakatsuji, X. Li, M. Caricato, A. V. Marenich, 
 J. Bloino, B. G. Janesko, R. Gomperts, B. Mennucci, H. P. Hratchian, 
 J. V. Ortiz, A. F. Izmaylov, J. L. Sonnenberg, D. Williams-Young, 
 F. Ding, F. Lipparini, F. Egidi, J. Goings, B. Peng, A. Petrone, 
 T. Henderson, D. Ranasinghe, V. G. Zakrzewski, J. Gao, N. Rega, 
 G. Zheng, W. Liang, M. Hada, M. Ehara, K. Toyota, R. Fukuda, 
 J. Hasegawa, M. Ishida, T. Nakajima, Y. Honda, O. Kitao, H. Nakai, 
 T. Vreven, K. Throssell, J. A. Montgomery, Jr., J. E. Peralta, 
 F. Ogliaro, M. J. Bearpark, J. J. Heyd, E. N. Brothers, K. N. Kudin, 
 V. N. Staroverov, T. A. Keith, R. Kobayashi, J. Normand, 
 K. Raghavachari, A. P. Rendell, J. C. Burant, S. S. Iyengar, 
 J. Tomasi, M. Cossi, J. M. Millam, M. Klene, C. Adamo, R. Cammi, 
 J. W. Ochterski, R. L. Martin, K. Morokuma, O. Farkas, 
 J. B. Foresman, and D. J. Fox, Gaussian, Inc., Wallingford CT, 2019.
 
 ******************************************
 Gaussian 16:  ES64L-G16RevC.01  3-Jul-2019
                15-Sep-2020 
 ******************************************
 %NprocShared=4
 Will use up to    4 processors via shared memory.
 %chk=checkpoint.chk
 ----------------------------------------------------------------------
 # wB97xD/Gen Freq=(anharmonic,ReadAnharm) Opt=(VeryTight,ZMatrix,CalcA
 ll) Int=UltraFine
 ----------------------------------------------------------------------
 1/7=1,10=4,18=40,26=4,38=1,80=1/1,3;
 2/12=2,17=6,18=5,29=3,40=1/2;
 3/5=7,11=2,25=1,30=1,71=2,74=-58,75=-5,140=1/1,2,3;
 4//1;
 5/5=2,38=5/2;
 8/6=4,10=90,11=11/1;
 11/6=1,8=1,9=11,15=111,16=1/1,2,10;
 10/6=1/2;
 6/7=2,8=2,9=2,10=2,18=1,28=1/1;
 7/10=1,25=1/1,2,3,16;
 1/7=1,10=4,18=40,26=4,80=1/3(3);
 2/29=3/2;
 7/8=1,9=1,25=1,44=-1,71=2,72=1/16;
 99//99;
 2/29=3/2;
 3/5=7,6=1,11=2,25=1,30=1,71=2,74=-58,75=-5,82=7,140=1/1,2,3;
 4/5=5,16=3,69=1/1;
 5/5=2,38=5/2;
 8/6=4,10=90,11=11/1;
 11/6=1,8=1,9=11,15=111,16=1/1,2,10;
 10/6=1/2;
 7/10=1,25=1/1,2,3,16;
 1/7=1,10=4,18=40,26=4,80=1/3(-8);
 2/29=3/2;
 6/7=2,8=2,9=2,10=2,18=1,19=2,28=1/1;
 7/8=1,9=1,25=1,44=-1,71=1,72=1/16;
 99//99;
 --------------------------------------------------------
 CFC-114 - ClF2C-CClF2 ANHARMONIC FREQUENCIES - CONFORMER
 --------------------------------------------------------
 Symbolic Z-matrix:
 Charge =  0 Multiplicity = 1
 C
 C                    1    r2
 Cl                   1    r3       2    a3
 F                    1    r4       2    a4       3    d4       0
 F                    1    r5       2    a5       3    d5       0
 F                    2    r6       1    a6       3    d6       0
 F                    2    r7       1    a7       3    d7       0
 Cl                   2    r8       1    a8       3    d8       0
       Variables:
  r2                    1.5408                   
  r3                    1.7862                   
  a3                  113.23                     
  r4                    1.3641                   
  a4                  110.25                     
  d4                  239.13                     
  r5                    1.3628                   
  a5                  110.94                     
  d5                  122.31                     
  r6                    1.3641                   
  a6                  110.21                     
  d6                  175.53                     
  r7                    1.3629                   
  a7                  110.9                      
  d7                   58.79                     
  r8                    1.7857                   
  a8                  113.19                     
  d8                  296.52                     
 

 GradGradGradGradGradGradGradGradGradGradGradGradGradGradGradGradGradGrad
 Berny optimization.
 Initialization pass.
                       ----------------------------
                       !    Initial Parameters    !
                       ! (Angstroms and Degrees)  !
 ----------------------                            ----------------------
 !      Name          Value   Derivative information (Atomic Units)     !
 ------------------------------------------------------------------------
 !       r2          1.5408   calculate D2E/DX2 analytically            !
 !       r3          1.7862   calculate D2E/DX2 analytically            !
 !       a3        113.23     calculate D2E/DX2 analytically            !
 !       r4          1.3641   calculate D2E/DX2 analytically            !
 !       a4        110.25     calculate D2E/DX2 analytically            !
 !       d4        239.13     calculate D2E/DX2 analytically            !
 !       r5          1.3628   calculate D2E/DX2 analytically            !
 !       a5        110.94     calculate D2E/DX2 analytically            !
 !       d5        122.31     calculate D2E/DX2 analytically            !
 !       r6          1.3641   calculate D2E/DX2 analytically            !
 !       a6        110.21     calculate D2E/DX2 analytically            !
 !       d6        175.53     calculate D2E/DX2 analytically            !
 !       r7          1.3629   calculate D2E/DX2 analytically            !
 !       a7        110.9      calculate D2E/DX2 analytically            !
 !       d7         58.79     calculate D2E/DX2 analytically            !
 !       r8          1.7857   calculate D2E/DX2 analytically            !
 !       a8        113.19     calculate D2E/DX2 analytically            !
 !       d8        296.52     calculate D2E/DX2 analytically            !
 ------------------------------------------------------------------------
 Trust Radius=3.00D-01 FncErr=1.00D-07 GrdErr=1.00D-06 EigMax=2.50D+02 EigMin=1.00D-04
 Number of steps in this run=     28 maximum allowed number of steps=    100.
 GradGradGradGradGradGradGradGradGradGradGradGradGradGradGradGradGradGrad

 ---------------------------------------------------------------------------------------------------
                            Z-MATRIX (ANGSTROMS AND DEGREES)
   CD    Cent   Atom    N1       Length/X        N2       Alpha/Y        N3        Beta/Z          J
 ---------------------------------------------------------------------------------------------------
      1      1  C 
      2      2  C        1   1.540800(     1)
      3      3  Cl       1   1.786200(     2)      2  113.230(     8)
      4      4  F        1   1.364100(     3)      2  110.250(     9)      3  239.130(    14)      0
      5      5  F        1   1.362800(     4)      2  110.940(    10)      3  122.310(    15)      0
      6      6  F        2   1.364100(     5)      1  110.210(    11)      3  175.530(    16)      0
      7      7  F        2   1.362900(     6)      1  110.900(    12)      3   58.790(    17)      0
      8      8  Cl       2   1.785700(     7)      1  113.190(    13)      3  296.520(    18)      0
 ---------------------------------------------------------------------------------------------------
                         Z-Matrix orientation:                         
 ---------------------------------------------------------------------
 Center     Atomic      Atomic             Coordinates (Angstroms)
 Number     Number       Type             X           Y           Z
 ---------------------------------------------------------------------
      1          6           0        0.000000    0.000000    0.000000
      2          6           0        0.000000    0.000000    1.540800
      3         17           0        1.641391    0.000000   -0.704519
      4          9           0       -0.656648    1.098484   -0.472138
      5          9           0       -0.680308   -1.075726   -0.487051
      6          9           0       -1.276222    0.099769    2.012045
      7          9           0        0.659756    1.088958    2.026998
      8         17           0        0.732912   -1.468710    2.243976
 ---------------------------------------------------------------------
                    Distance matrix (angstroms):
                    1          2          3          4          5
     1  C    0.000000
     2  C    1.540800   0.000000
     3  Cl   1.786200   2.781298   0.000000
     4  F    1.364100   2.385325   2.557665   0.000000
     5  F    1.362800   2.394198   2.568027   2.174390   0.000000
     6  F    2.384748   1.364100   3.987748   2.748176   2.825311
     7  F    2.393706   1.362900   3.100100   2.824658   3.577998
     8  Cl   2.780233   1.785700   3.417025   3.987309   3.100022
                    6          7          8
     6  F    0.000000
     7  F    2.174105   0.000000
     8  Cl   2.559402   2.567897   0.000000
 Stoichiometry    C2Cl2F4
 Framework group  C1[X(C2Cl2F4)]
 Deg. of freedom    18
 Full point group                 C1      NOp   1
 Largest Abelian subgroup         C1      NOp   1
 Largest concise Abelian subgroup C1      NOp   1
                         Standard orientation:                         
 ---------------------------------------------------------------------
 Center     Atomic      Atomic             Coordinates (Angstroms)
 Number     Number       Type             X           Y           Z
 ---------------------------------------------------------------------
      1          6           0       -0.732448    0.326498    0.237321
      2          6           0        0.733636    0.326528   -0.236662
      3         17           0       -1.668675   -1.068880   -0.368411
      4          9           0       -1.362607    1.463178   -0.176957
      5          9           0       -0.804361    0.338344    1.598171
      6          9           0        1.362659    1.464006    0.177153
      7          9           0        0.804606    0.339121   -1.597654
      8         17           0        1.668098   -1.069943    0.367801
 ---------------------------------------------------------------------
 Rotational constants (GHZ):           1.8224251           1.2274063           1.0729983
 General basis read from cards:  (5D, 7F)
 There are   208 symmetry adapted cartesian basis functions of A   symmetry.
 There are   192 symmetry adapted basis functions of A   symmetry.
   192 basis functions,   392 primitive gaussians,   208 cartesian basis functions
    41 alpha electrons       41 beta electrons
       nuclear repulsion energy       604.5932392214 Hartrees.
 NAtoms=    8 NActive=    8 NUniq=    8 SFac= 1.00D+00 NAtFMM=   60 NAOKFM=F Big=F
 Integral buffers will be    131072 words long.
 Raffenetti 2 integral format.
 Two-electron integral symmetry is turned on.
 Nuclear repulsion after empirical dispersion term =      604.5905526365 Hartrees.
 One-electron integrals computed using PRISM.
 NBasis=   192 RedAO= T EigKep=  2.40D-04  NBF=   192
 NBsUse=   192 1.00D-06 EigRej= -1.00D+00 NBFU=   192
 ExpMin= 3.35D-02 ExpMax= 6.35D+04 ExpMxC= 2.17D+03 IAcc=3 IRadAn=         5 AccDes= 0.00D+00
 Harris functional with IExCor= 4639 and IRadAn=       5 diagonalized for initial guess.
 HarFok:  IExCor= 4639 AccDes= 0.00D+00 IRadAn=         5 IDoV= 1 UseB2=F ITyADJ=14
 ICtDFT=  3500011 ScaDFX=  1.000000  1.000000  1.000000  1.000000
 FoFCou: FMM=F IPFlag=           0 FMFlag=      100000 FMFlg1=           0
         NFxFlg=           0 DoJE=T BraDBF=F KetDBF=T FulRan=T
         wScrn=  0.000000 ICntrl=       500 IOpCl=  0 I1Cent=   200000004 NGrid=           0
         NMat0=    1 NMatS0=      1 NMatT0=    0 NMatD0=    1 NMtDS0=    0 NMtDT0=    0
 Petite list used in FoFCou.
 Requested convergence on RMS density matrix=1.00D-08 within 128 cycles.
 Requested convergence on MAX density matrix=1.00D-06.
 Requested convergence on             energy=1.00D-06.
 No special actions if energy rises.
 SCF Done:  E(RwB97XD) =  -1395.76552338     A.U. after   13 cycles
            NFock= 13  Conv=0.60D-08     -V/T= 2.0017
 DoSCS=F DFT=T ScalE2(SS,OS)=  1.000000  1.000000
 Range of M.O.s used for correlation:     1   192
 NBasis=   192 NAE=    41 NBE=    41 NFC=     0 NFV=     0
 NROrb=    192 NOA=    41 NOB=    41 NVA=   151 NVB=   151

 **** Warning!!: The largest alpha MO coefficient is  0.19451507D+02

 Symmetrizing basis deriv contribution to polar:
 IMax=3 JMax=2 DiffMx= 0.00D+00
 G2DrvN: will do     9 centers at a time, making    1 passes.
 Calling FoFCou, ICntrl=  3107 FMM=F I1Cent=   0 AccDes= 0.00D+00.
 End of G2Drv F.D. properties file   721 does not exist.
 End of G2Drv F.D. properties file   722 does not exist.
 End of G2Drv F.D. properties file   788 does not exist.
          IDoAtm=11111111
          Differentiating once with respect to electric field.
                with respect to dipole field.
          Differentiating once with respect to nuclear coordinates.
 CalDSu exits because no D1Ps are significant.
          There are    27 degrees of freedom in the 1st order CPHF.  IDoFFX=6 NUNeed=     3.
     24 vectors produced by pass  0 Test12= 2.29D-14 3.70D-09 XBig12= 2.54D+01 1.85D+00.
 AX will form    24 AO Fock derivatives at one time.
     24 vectors produced by pass  1 Test12= 2.29D-14 3.70D-09 XBig12= 3.69D+00 3.33D-01.
     24 vectors produced by pass  2 Test12= 2.29D-14 3.70D-09 XBig12= 4.43D-01 9.05D-02.
     24 vectors produced by pass  3 Test12= 2.29D-14 3.70D-09 XBig12= 2.05D-02 2.25D-02.
     24 vectors produced by pass  4 Test12= 2.29D-14 3.70D-09 XBig12= 2.38D-04 2.65D-03.
     24 vectors produced by pass  5 Test12= 2.29D-14 3.70D-09 XBig12= 2.57D-06 3.72D-04.
     24 vectors produced by pass  6 Test12= 2.29D-14 3.70D-09 XBig12= 2.12D-08 3.50D-05.
     15 vectors produced by pass  7 Test12= 2.29D-14 3.70D-09 XBig12= 1.39D-10 1.93D-06.
      3 vectors produced by pass  8 Test12= 2.29D-14 3.70D-09 XBig12= 8.22D-13 1.36D-07.
      3 vectors produced by pass  9 Test12= 2.29D-14 3.70D-09 XBig12= 5.24D-15 1.34D-08.
 InvSVY:  IOpt=1 It=  1 EMax= 5.33D-15
 Solved reduced A of dimension   189 with    27 vectors.
 Isotropic polarizability for W=    0.000000       58.13 Bohr**3.
 End of Minotr F.D. properties file   721 does not exist.
 End of Minotr F.D. properties file   722 does not exist.
 End of Minotr F.D. properties file   788 does not exist.

 **********************************************************************

            Population analysis using the SCF Density.

 **********************************************************************

 Orbital symmetries:
       Occupied  (A) (A) (A) (A) (A) (A) (A) (A) (A) (A) (A) (A)
                 (A) (A) (A) (A) (A) (A) (A) (A) (A) (A) (A) (A)
                 (A) (A) (A) (A) (A) (A) (A) (A) (A) (A) (A) (A)
                 (A) (A) (A) (A) (A)
       Virtual   (A) (A) (A) (A) (A) (A) (A) (A) (A) (A) (A) (A)
                 (A) (A) (A) (A) (A) (A) (A) (A) (A) (A) (A) (A)
                 (A) (A) (A) (A) (A) (A) (A) (A) (A) (A) (A) (A)
                 (A) (A) (A) (A) (A) (A) (A) (A) (A) (A) (A) (A)
                 (A) (A) (A) (A) (A) (A) (A) (A) (A) (A) (A) (A)
                 (A) (A) (A) (A) (A) (A) (A) (A) (A) (A) (A) (A)
                 (A) (A) (A) (A) (A) (A) (A) (A) (A) (A) (A) (A)
                 (A) (A) (A) (A) (A) (A) (A) (A) (A) (A) (A) (A)
                 (A) (A) (A) (A) (A) (A) (A) (A) (A) (A) (A) (A)
                 (A) (A) (A) (A) (A) (A) (A) (A) (A) (A) (A) (A)
                 (A) (A) (A) (A) (A) (A) (A) (A) (A) (A) (A) (A)
                 (A) (A) (A) (A) (A) (A) (A) (A) (A) (A) (A) (A)
                 (A) (A) (A) (A) (A) (A) (A)
 The electronic state is 1-A.
 Alpha  occ. eigenvalues -- -101.72714-101.72694 -24.87820 -24.87815 -24.87717
 Alpha  occ. eigenvalues --  -24.87707 -10.57529 -10.57510  -9.62686  -9.62666
 Alpha  occ. eigenvalues --   -7.37460  -7.37440  -7.36330  -7.36322  -7.36310
 Alpha  occ. eigenvalues --   -7.36303  -1.43872  -1.42014  -1.36732  -1.36373
 Alpha  occ. eigenvalues --   -1.02650  -0.99481  -0.88757  -0.78918  -0.73135
 Alpha  occ. eigenvalues --   -0.71641  -0.70383  -0.66828  -0.65767  -0.60214
 Alpha  occ. eigenvalues --   -0.57701  -0.57213  -0.56477  -0.55025  -0.54495
 Alpha  occ. eigenvalues --   -0.53219  -0.49022  -0.45814  -0.45103  -0.44196
 Alpha  occ. eigenvalues --   -0.43517
 Alpha virt. eigenvalues --    0.02782   0.03727   0.05609   0.06775   0.07723
 Alpha virt. eigenvalues --    0.07879   0.09318   0.09717   0.10524   0.10560
 Alpha virt. eigenvalues --    0.12140   0.12883   0.14418   0.15049   0.15320
 Alpha virt. eigenvalues --    0.15878   0.15963   0.19127   0.20610   0.22204
 Alpha virt. eigenvalues --    0.22466   0.22805   0.23788   0.25240   0.26135
 Alpha virt. eigenvalues --    0.26169   0.26680   0.27469   0.27885   0.28350
 Alpha virt. eigenvalues --    0.29500   0.30052   0.30115   0.30529   0.30795
 Alpha virt. eigenvalues --    0.32852   0.35125   0.35682   0.37313   0.37435
 Alpha virt. eigenvalues --    0.39024   0.39282   0.40765   0.41033   0.41902
 Alpha virt. eigenvalues --    0.42890   0.43112   0.45880   0.46499   0.48325
 Alpha virt. eigenvalues --    0.51307   0.52291   0.54336   0.55090   0.55516
 Alpha virt. eigenvalues --    0.57055   0.58811   0.60066   0.62274   0.68831
 Alpha virt. eigenvalues --    0.69793   0.72739   0.73591   0.73659   0.77509
 Alpha virt. eigenvalues --    0.77636   0.78121   0.79095   0.79564   0.80694
 Alpha virt. eigenvalues --    0.82240   0.83363   0.84267   0.84777   0.86109
 Alpha virt. eigenvalues --    0.86861   0.86908   0.89682   0.93480   0.94199
 Alpha virt. eigenvalues --    0.95652   0.96912   0.97602   0.99516   1.01640
 Alpha virt. eigenvalues --    1.02123   1.02232   1.02484   1.04978   1.05626
 Alpha virt. eigenvalues --    1.09053   1.09356   1.11933   1.12987   1.13545
 Alpha virt. eigenvalues --    1.17883   1.19268   1.21867   1.24187   1.30429
 Alpha virt. eigenvalues --    1.38419   1.40177   1.48691   1.50407   1.54271
 Alpha virt. eigenvalues --    1.60554   1.63156   1.65513   1.72570   1.77656
 Alpha virt. eigenvalues --    1.82908   1.85175   1.90440   1.90603   1.95393
 Alpha virt. eigenvalues --    2.00624   2.01453   2.01786   2.04051   2.04905
 Alpha virt. eigenvalues --    2.09409   2.10066   2.15224   2.18314   2.28292
 Alpha virt. eigenvalues --    2.29620   2.52713   2.77103   2.77391   2.79937
 Alpha virt. eigenvalues --    2.83502   2.84183   2.84827   2.88451   2.88612
 Alpha virt. eigenvalues --    2.91533   2.92015   2.92467   2.96804   2.97143
 Alpha virt. eigenvalues --    2.98329   2.98374   3.06034   3.14751   3.16162
 Alpha virt. eigenvalues --    3.22732   3.23874   3.57194   3.58587   3.65926
 Alpha virt. eigenvalues --    3.71900
          Condensed to atoms (all electrons):
               1          2          3          4          5          6
     1  C    5.354211  -0.179556   0.299764  -0.381083  -0.436157  -0.053804
     2  C   -0.179556   5.353128  -0.258467  -0.053786  -0.029578  -0.380965
     3  Cl   0.299764  -0.258467  17.664951  -0.152885  -0.142579   0.033348
     4  F   -0.381083  -0.053786  -0.152885  10.419884  -0.168056  -0.027156
     5  F   -0.436157  -0.029578  -0.142579  -0.168056  10.387206  -0.023255
     6  F   -0.053804  -0.380965   0.033348  -0.027156  -0.023255  10.419248
     7  F   -0.029542  -0.435070  -0.019154  -0.023203   0.016868  -0.168017
     8  Cl  -0.258919   0.299301   0.028008   0.033357  -0.019289  -0.152528
               7          8
     1  C   -0.029542  -0.258919
     2  C   -0.435070   0.299301
     3  Cl  -0.019154   0.028008
     4  F   -0.023203   0.033357
     5  F    0.016868  -0.019289
     6  F   -0.168017  -0.152528
     7  F   10.385841  -0.142597
     8  Cl  -0.142597  17.665534
 Mulliken charges:
               1
     1  C    1.685086
     2  C    1.684993
     3  Cl  -0.452985
     4  F   -0.647071
     5  F   -0.585160
     6  F   -0.646871
     7  F   -0.585126
     8  Cl  -0.452867
 Sum of Mulliken charges =  -0.00000
 Mulliken charges with hydrogens summed into heavy atoms:
               1
     1  C    1.685086
     2  C    1.684993
     3  Cl  -0.452985
     4  F   -0.647071
     5  F   -0.585160
     6  F   -0.646871
     7  F   -0.585126
     8  Cl  -0.452867
 APT charges:
               1
     1  C    1.283413
     2  C    1.283970
     3  Cl  -0.251200
     4  F   -0.533004
     5  F   -0.499375
     6  F   -0.533404
     7  F   -0.499381
     8  Cl  -0.251018
 Sum of APT charges =  -0.00000
 APT charges with hydrogens summed into heavy atoms:
               1
     1  C    1.283413
     2  C    1.283970
     3  Cl  -0.251200
     4  F   -0.533004
     5  F   -0.499375
     6  F   -0.533404
     7  F   -0.499381
     8  Cl  -0.251018
 Electronic spatial extent (au):  <R**2>=           1121.7333
 Charge=             -0.0000 electrons
 Dipole moment (field-independent basis, Debye):
    X=              0.0053    Y=             -0.8319    Z=              0.0022  Tot=              0.8319
 Quadrupole moment (field-independent basis, Debye-Ang):
   XX=            -56.0007   YY=            -55.9804   ZZ=            -57.8933
   XY=             -0.0050   XZ=              1.0404   YZ=              0.0001
 Traceless Quadrupole moment (field-independent basis, Debye-Ang):
   XX=              0.6241   YY=              0.6444   ZZ=             -1.2685
   XY=             -0.0050   XZ=              1.0404   YZ=              0.0001
 Octapole moment (field-independent basis, Debye-Ang**2):
  XXX=              0.0056  YYY=              9.9239  ZZZ=              0.0034  XYY=              0.0142
  XXY=             -1.7728  XXZ=             -0.0030  XZZ=             -0.0021  YZZ=              4.5574
  YYZ=              0.0040  XYZ=             -2.6078
 Hexadecapole moment (field-independent basis, Debye-Ang**3):
 XXXX=           -641.6520 YYYY=           -350.8163 ZZZZ=           -228.9083 XXXY=              0.0057
 XXXZ=             -3.4195 YYYX=             -0.0362 YYYZ=             -0.0133 ZZZX=             -7.5411
 ZZZY=             -0.0054 XXYY=           -154.9667 XXZZ=           -146.3211 YYZZ=            -96.6721
 XXYZ=              0.0046 YYXZ=              3.4630 ZZXY=              0.0023
 N-N= 6.045905526365D+02 E-N=-4.527076816700D+03  KE= 1.393363134238D+03
  Exact polarizability:      61.369      -0.002      60.635       3.493       0.004      52.378
 Approx polarizability:      62.618       0.004      71.330       4.431       0.001      62.320
 Calling FoFJK, ICntrl=    100127 FMM=F ISym2X=0 I1Cent= 0 IOpClX= 0 NMat=1 NMatS=1 NMatT=0.
 ***** Axes restored to original set *****
 -------------------------------------------------------------------
 Center     Atomic                   Forces (Hartrees/Bohr)
 Number     Number              X              Y              Z
 -------------------------------------------------------------------
      1        6          -0.012919825    0.001863467   -0.037424251
      2        6          -0.007401544    0.011131510    0.036990073
      3       17          -0.008638072   -0.000357209    0.007997720
      4        9           0.010688407   -0.014646402    0.015752894
      5        9           0.011974622    0.014927374    0.016055882
      6        9           0.017969198   -0.003329494   -0.015586498
      7        9          -0.007985444   -0.017431654   -0.015957428
      8       17          -0.003687342    0.007842407   -0.007828393
 -------------------------------------------------------------------
 Cartesian Forces:  Max     0.037424251 RMS     0.015536418
 -----------------------------------------------------------------------------------------------
                       Internal Coordinate Forces (Hartree/Bohr or radian)
  Cent   Atom   N1       Length/X         N2         Alpha/Y        N3         Beta/Z          J
 -----------------------------------------------------------------------------------------------
      1  C 
      2  C        1  -0.002382(     1)
      3  Cl       1  -0.011092(     2)      2  -0.013307(     8)
      4  F        1  -0.022392(     3)      2  -0.021988(     9)      3   0.004013(    14)     0
      5  F        1  -0.023499(     4)      2  -0.021115(    10)      3  -0.005152(    15)     0
      6  F        2  -0.022440(     5)      1  -0.021520(    11)      3   0.004642(    16)     0
      7  F        2  -0.023486(     6)      1  -0.020895(    12)      3  -0.005300(    17)     0
      8  Cl       2  -0.011046(     7)      1  -0.012770(    13)      3   0.000628(    18)     0
 -----------------------------------------------------------------------------------------------
 Internal  Forces:  Max     0.023498849 RMS     0.016023150

 GradGradGradGradGradGradGradGradGradGradGradGradGradGradGradGradGradGrad
 Berny optimization.
 Search for a local minimum.
 Step number   1 out of a maximum of   28
 All quantities printed in internal units (Hartrees-Bohrs-Radians)
 Second derivative matrix not updated -- analytic derivatives used.
 The second derivative matrix:
                          r2        r3        a3        r4        a4
           r2           0.27612
           r3           0.01230   0.20703
           a3           0.03717  -0.00911   0.41003
           r4           0.01535   0.03886  -0.03673   0.33913
           a4           0.02848  -0.03712   0.13270  -0.01059   0.41589
           d4           0.00359  -0.04855   0.08757   0.01167  -0.01167
           r5           0.01558   0.03849  -0.03593   0.05139  -0.03880
           a5           0.03054  -0.03581   0.13535  -0.03837   0.14532
           d5           0.00161   0.04634  -0.08675  -0.06504   0.10646
           r6           0.01541   0.00242   0.01301   0.00393  -0.00457
           a6           0.02853   0.01197   0.02663  -0.00459   0.00017
           d6           0.00359   0.00012  -0.00122  -0.00830   0.00431
           r7           0.01563   0.00316   0.00139   0.00391  -0.00097
           a7           0.03065   0.00285   0.01290  -0.00155  -0.00066
           d7           0.00161  -0.00178   0.00853   0.00792  -0.00125
           r8           0.01235   0.00335   0.00564   0.00242   0.01197
           a8           0.03723   0.00565   0.02688   0.01300   0.02667
           d8          -0.00447   0.00038  -0.01827  -0.00014  -0.00010
                          d4        r5        a5        d5        r6
           d4           0.42409
           r5           0.06499   0.34125
           a5          -0.10401  -0.00798   0.41995
           d5          -0.24004  -0.01305   0.02344   0.41605
           r6          -0.00831   0.00391  -0.00153   0.00791   0.33916
           a6           0.00432  -0.00097  -0.00073  -0.00120  -0.01013
           d6           0.00494   0.00684  -0.00063   0.00207   0.01212
           r7           0.00684   0.00277   0.01733  -0.00070   0.05144
           a7          -0.00067   0.01733   0.03827   0.00125  -0.03829
           d7           0.00208  -0.00069   0.00127   0.00553  -0.06525
           r8           0.00013   0.00316   0.00284  -0.00178   0.03871
           a8          -0.00121   0.00140   0.01287   0.00851  -0.03648
           d8           0.00296  -0.00486   0.00784   0.00408   0.05282
                          a6        d6        r7        a7        d7
           a6           0.41568
           d6          -0.01206   0.42372
           r7          -0.03874   0.06513   0.34115
           a7           0.14539  -0.10408  -0.00776   0.41990
           d7           0.10636  -0.24055  -0.01319   0.02337   0.41686
           r8          -0.03690  -0.04821   0.03850  -0.03577   0.04639
           a8           0.13224   0.08717  -0.03584   0.13529  -0.08672
           d8          -0.09134  -0.17312  -0.05068   0.08926  -0.16474
                          r8        a8        d8
           r8           0.20738
           a8          -0.00868   0.40996
           d8           0.00101  -0.01077   0.35737
 ITU=  0
     Eigenvalues ---    0.01245   0.10594   0.13274   0.14412   0.16393
     Eigenvalues ---    0.23618   0.24050   0.26243   0.30413   0.31550
     Eigenvalues ---    0.33601   0.37530   0.41509   0.61078   0.65601
     Eigenvalues ---    0.71954   0.76348   0.78659
 RFO step:  Lambda=-1.00720487D-02 EMin= 1.24469906D-02
 Linear search not attempted -- first point.
 Variable       Old X    -DE/DX   Delta X   Delta X   Delta X     New X
                                 (Linear)    (Quad)   (Total)
    r2        2.91169  -0.00238   0.00000   0.02739   0.02739   2.93908
    r3        3.37543  -0.01109   0.00000  -0.03734  -0.03734   3.33809
    a3        1.97624  -0.01331   0.00000  -0.01517  -0.01517   1.96107
    r4        2.57778  -0.02239   0.00000  -0.05780  -0.05780   2.51998
    a4        1.92423  -0.02199   0.00000  -0.04596  -0.04596   1.87827
    d4        4.17361   0.00401   0.00000   0.00795   0.00795   4.18156
    r5        2.57532  -0.02350   0.00000  -0.06176  -0.06176   2.51356
    a5        1.93627  -0.02112   0.00000  -0.03240  -0.03240   1.90387
    d5        2.13471  -0.00515   0.00000  -0.00324  -0.00324   2.13147
    r6        2.57778  -0.02244   0.00000  -0.05783  -0.05783   2.51995
    a6        1.92353  -0.02152   0.00000  -0.04509  -0.04509   1.87844
    d6        3.06358   0.00464   0.00000   0.01404   0.01404   3.07761
    r7        2.57551  -0.02349   0.00000  -0.06188  -0.06188   2.51363
    a7        1.93557  -0.02089   0.00000  -0.03179  -0.03179   1.90378
    d7        1.02608  -0.00530   0.00000   0.00137   0.00137   1.02745
    r8        3.37448  -0.01105   0.00000  -0.03633  -0.03633   3.33815
    a8        1.97554  -0.01277   0.00000  -0.01450  -0.01450   1.96104
    d8        5.17525   0.00063   0.00000   0.00433   0.00433   5.17958
         Item               Value     Threshold  Converged?
 Maximum Force            0.023499     0.000002     NO 
 RMS     Force            0.016023     0.000001     NO 
 Maximum Displacement     0.061880     0.000006     NO 
 RMS     Displacement     0.037065     0.000004     NO 
 Predicted change in Energy=-5.160563D-03
 GradGradGradGradGradGradGradGradGradGradGradGradGradGradGradGradGradGrad

 ---------------------------------------------------------------------------------------------------
                            Z-MATRIX (ANGSTROMS AND DEGREES)
   CD    Cent   Atom    N1       Length/X        N2       Alpha/Y        N3        Beta/Z          J
 ---------------------------------------------------------------------------------------------------
      1      1  C 
      2      2  C        1   1.555295(     1)
      3      3  Cl       1   1.766442(     2)      2  112.361(     8)
      4      4  F        1   1.333515(     3)      2  107.617(     9)      3  239.586(    14)      0
      5      5  F        1   1.330118(     4)      2  109.083(    10)      3  122.124(    15)      0
      6      6  F        2   1.333500(     5)      1  107.627(    11)      3  176.334(    16)      0
      7      7  F        2   1.330155(     6)      1  109.079(    12)      3   58.869(    17)      0
      8      8  Cl       2   1.766473(     7)      1  112.359(    13)      3  296.768(    18)      0
 ---------------------------------------------------------------------------------------------------
                         Z-Matrix orientation:                         
 ---------------------------------------------------------------------
 Center     Atomic      Atomic             Coordinates (Angstroms)
 Number     Number       Type             X           Y           Z
 ---------------------------------------------------------------------
      1          6           0        0.000000    0.000000    0.000000
      2          6           0        0.000000    0.000000    1.555295
      3         17           0        1.633615    0.000000   -0.672026
      4          9           0       -0.643434    1.096072   -0.403586
      5          9           0       -0.668429   -1.064566   -0.434875
      6          9           0       -1.268291    0.081257    1.959097
      7          9           0        0.649919    1.076048    1.990079
      8         17           0        0.735772   -1.458595    2.227282
 ---------------------------------------------------------------------
                    Distance matrix (angstroms):
                    1          2          3          4          5
     1  C    0.000000
     2  C    1.555295   0.000000
     3  Cl   1.766442   2.762184   0.000000
     4  F    1.333515   2.335080   2.541336   0.000000
     5  F    1.330118   2.353907   2.547341   2.161009   0.000000
     6  F    2.335215   1.333500   3.917969   2.646237   2.721002
     7  F    2.353867   1.330155   3.035184   2.720808   3.492946
     8  Cl   2.762181   1.766473   3.367433   3.917907   3.035477
                    6          7          8
     6  F    0.000000
     7  F    2.161041   0.000000
     8  Cl   2.541523   2.547165   0.000000
 Stoichiometry    C2Cl2F4
 Framework group  C1[X(C2Cl2F4)]
 Deg. of freedom    18
 Full point group                 C1      NOp   1
 Largest Abelian subgroup         C1      NOp   1
 Largest concise Abelian subgroup C1      NOp   1
                         Standard orientation:                         
 ---------------------------------------------------------------------
 Center     Atomic      Atomic             Coordinates (Angstroms)
 Number     Number       Type             X           Y           Z
 ---------------------------------------------------------------------
      1          6           0       -0.735507    0.327997    0.252562
      2          6           0        0.735506    0.328039   -0.252476
      3         17           0       -1.649153   -1.063201   -0.339164
      4          9           0       -1.310825    1.450492   -0.180192
      5          9           0       -0.738651    0.339170    1.582630
      6          9           0        1.310815    1.450716    0.179772
      7          9           0        0.738539    0.338646   -1.582585
      8         17           0        1.649218   -1.063118    0.339332
 ---------------------------------------------------------------------
 Rotational constants (GHZ):           1.8585943           1.2788070           1.1103346
 Basis read from rwf:  (5D, 7F)
 There are   208 symmetry adapted cartesian basis functions of A   symmetry.
 There are   192 symmetry adapted basis functions of A   symmetry.
   192 basis functions,   392 primitive gaussians,   208 cartesian basis functions
    41 alpha electrons       41 beta electrons
       nuclear repulsion energy       614.0444674006 Hartrees.
 NAtoms=    8 NActive=    8 NUniq=    8 SFac= 1.00D+00 NAtFMM=   60 NAOKFM=F Big=F
 Integral buffers will be    131072 words long.
 Raffenetti 2 integral format.
 Two-electron integral symmetry is turned on.
 Nuclear repulsion after empirical dispersion term =      614.0418954924 Hartrees.
 One-electron integrals computed using PRISM.
 NBasis=   192 RedAO= T EigKep=  2.27D-04  NBF=   192
 NBsUse=   192 1.00D-06 EigRej= -1.00D+00 NBFU=   192
 Initial guess from the checkpoint file:  "checkpoint.chk"
 B after Tr=    -0.000000    0.000000    0.000000
         Rot=    0.999971    0.000187   -0.007638   -0.000072 Ang=   0.88 deg.
 ExpMin= 3.35D-02 ExpMax= 6.35D+04 ExpMxC= 2.17D+03 IAcc=3 IRadAn=         5 AccDes= 0.00D+00
 Harris functional with IExCor= 4639 and IRadAn=       5 diagonalized for initial guess.
 HarFok:  IExCor= 4639 AccDes= 0.00D+00 IRadAn=         5 IDoV= 1 UseB2=F ITyADJ=14
 ICtDFT=  3500011 ScaDFX=  1.000000  1.000000  1.000000  1.000000
 FoFCou: FMM=F IPFlag=           0 FMFlag=      100000 FMFlg1=           0
         NFxFlg=           0 DoJE=T BraDBF=F KetDBF=T FulRan=T
         wScrn=  0.000000 ICntrl=       500 IOpCl=  0 I1Cent=   200000004 NGrid=           0
         NMat0=    1 NMatS0=      1 NMatT0=    0 NMatD0=    1 NMtDS0=    0 NMtDT0=    0
 Petite list used in FoFCou.
 Requested convergence on RMS density matrix=1.00D-08 within 128 cycles.
 Requested convergence on MAX density matrix=1.00D-06.
 Requested convergence on             energy=1.00D-06.
 No special actions if energy rises.
 SCF Done:  E(RwB97XD) =  -1395.77039747     A.U. after   11 cycles
            NFock= 11  Conv=0.61D-08     -V/T= 2.0015
 DoSCS=F DFT=T ScalE2(SS,OS)=  1.000000  1.000000
 Range of M.O.s used for correlation:     1   192
 NBasis=   192 NAE=    41 NBE=    41 NFC=     0 NFV=     0
 NROrb=    192 NOA=    41 NOB=    41 NVA=   151 NVB=   151

 **** Warning!!: The largest alpha MO coefficient is  0.20944634D+02

 Symmetrizing basis deriv contribution to polar:
 IMax=3 JMax=2 DiffMx= 0.00D+00
 G2DrvN: will do     9 centers at a time, making    1 passes.
 Calling FoFCou, ICntrl=  3107 FMM=F I1Cent=   0 AccDes= 0.00D+00.
 End of G2Drv F.D. properties file   721 does not exist.
 End of G2Drv F.D. properties file   722 does not exist.
 End of G2Drv F.D. properties file   788 does not exist.
          IDoAtm=11111111
          Differentiating once with respect to electric field.
                with respect to dipole field.
          Differentiating once with respect to nuclear coordinates.
 CalDSu exits because no D1Ps are significant.
          There are    27 degrees of freedom in the 1st order CPHF.  IDoFFX=6 NUNeed=     3.
     24 vectors produced by pass  0 Test12= 2.29D-14 3.70D-09 XBig12= 2.44D+01 1.63D+00.
 AX will form    24 AO Fock derivatives at one time.
     24 vectors produced by pass  1 Test12= 2.29D-14 3.70D-09 XBig12= 3.47D+00 2.83D-01.
     24 vectors produced by pass  2 Test12= 2.29D-14 3.70D-09 XBig12= 3.30D-01 7.52D-02.
     24 vectors produced by pass  3 Test12= 2.29D-14 3.70D-09 XBig12= 1.22D-02 1.98D-02.
     24 vectors produced by pass  4 Test12= 2.29D-14 3.70D-09 XBig12= 1.63D-04 2.50D-03.
     24 vectors produced by pass  5 Test12= 2.29D-14 3.70D-09 XBig12= 1.17D-06 1.68D-04.
     24 vectors produced by pass  6 Test12= 2.29D-14 3.70D-09 XBig12= 8.52D-09 1.60D-05.
     12 vectors produced by pass  7 Test12= 2.29D-14 3.70D-09 XBig12= 5.40D-11 1.02D-06.
      3 vectors produced by pass  8 Test12= 2.29D-14 3.70D-09 XBig12= 3.25D-13 7.69D-08.
      2 vectors produced by pass  9 Test12= 2.29D-14 3.70D-09 XBig12= 2.05D-15 7.59D-09.
 InvSVY:  IOpt=1 It=  1 EMax= 3.55D-15
 Solved reduced A of dimension   185 with    27 vectors.
 Isotropic polarizability for W=    0.000000       56.85 Bohr**3.
 End of Minotr F.D. properties file   721 does not exist.
 End of Minotr F.D. properties file   722 does not exist.
 End of Minotr F.D. properties file   788 does not exist.
 Calling FoFJK, ICntrl=    100127 FMM=F ISym2X=0 I1Cent= 0 IOpClX= 0 NMat=1 NMatS=1 NMatT=0.
 ***** Axes restored to original set *****
 -------------------------------------------------------------------
 Center     Atomic                   Forces (Hartrees/Bohr)
 Number     Number              X              Y              Z
 -------------------------------------------------------------------
      1        6           0.001901338   -0.000007639    0.000592881
      2        6           0.000934154   -0.001690184   -0.000568204
      3       17           0.000226048   -0.000034050   -0.000145167
      4        9          -0.001012121    0.001774817   -0.000892324
      5        9          -0.001202889   -0.001841708   -0.000995133
      6        9          -0.002020326    0.000086740    0.000879019
      7        9           0.001074754    0.001910501    0.000986951
      8       17           0.000099043   -0.000198476    0.000141978
 -------------------------------------------------------------------
 Cartesian Forces:  Max     0.002020326 RMS     0.001110600
 -----------------------------------------------------------------------------------------------
                       Internal Coordinate Forces (Hartree/Bohr or radian)
  Cent   Atom   N1       Length/X         N2         Alpha/Y        N3         Beta/Z          J
 -----------------------------------------------------------------------------------------------
      1  C 
      2  C        1   0.001440(     1)
      3  Cl       1   0.000264(     2)      2   0.000161(     8)
      4  F        1   0.002217(     3)      2   0.000585(     9)      3   0.000062(    14)     0
      5  F        1   0.002404(     4)      2   0.000556(    10)      3   0.000094(    15)     0
      6  F        2   0.002193(     5)      1   0.000568(    11)      3   0.000102(    16)     0
      7  F        2   0.002393(     6)      1   0.000544(    12)      3   0.000161(    17)     0
      8  Cl       2   0.000259(     7)      1   0.000157(    13)      3  -0.000003(    18)     0
 -----------------------------------------------------------------------------------------------
 Internal  Forces:  Max     0.002403865 RMS     0.001174074

 GradGradGradGradGradGradGradGradGradGradGradGradGradGradGradGradGradGrad
 Berny optimization.
 Search for a local minimum.
 Step number   2 out of a maximum of   28
 All quantities printed in internal units (Hartrees-Bohrs-Radians)
 Second derivative matrix not updated -- analytic derivatives used.
 DE= -4.87D-03 DEPred=-5.16D-03 R= 9.44D-01
 TightC=F SS=  1.41D+00  RLast= 1.57D-01 DXNew= 5.0454D-01 4.7177D-01
 Trust test= 9.44D-01 RLast= 1.57D-01 DXMaxT set to 4.72D-01
 The second derivative matrix:
                          r2        r3        a3        r4        a4
           r2           0.27062
           r3           0.01359   0.23108
           a3           0.04082  -0.00169   0.42106
           r4           0.01846   0.04078  -0.03464   0.41744
           a4           0.03815  -0.03811   0.12977   0.00634   0.44629
           d4           0.00462  -0.05065   0.08483   0.00979  -0.00709
           r5           0.01875   0.04082  -0.03529   0.05401  -0.03547
           a5           0.03827  -0.03759   0.13586  -0.03424   0.13855
           d5           0.00142   0.04854  -0.08686  -0.06560   0.10573
           r6           0.01845   0.00315   0.01498   0.00427  -0.00516
           a6           0.03813   0.01340   0.02911  -0.00516   0.00393
           d6           0.00463  -0.00004  -0.00190  -0.00994   0.00697
           r7           0.01875   0.00341   0.00083   0.00443  -0.00145
           a7           0.03830   0.00324   0.01454  -0.00251   0.00058
           d7           0.00142  -0.00210   0.00946   0.00955  -0.00200
           r8           0.01359   0.00340   0.00549   0.00315   0.01340
           a8           0.04080   0.00549   0.02892   0.01499   0.02912
           d8          -0.00439   0.00069  -0.02017  -0.00032  -0.00060
                          d4        r5        a5        d5        r6
           d4           0.44368
           r5           0.06560   0.42504
           a5          -0.10034   0.00773   0.44563
           d5          -0.24768  -0.01060   0.01889   0.43288
           r6          -0.00994   0.00443  -0.00251   0.00954   0.41745
           a6           0.00697  -0.00145   0.00057  -0.00199   0.00632
           d6           0.00723   0.00796  -0.00160   0.00316   0.00982
           r7           0.00797   0.00446   0.02061  -0.00015   0.05401
           a7          -0.00161   0.02061   0.04410   0.00291  -0.03424
           d7           0.00316  -0.00015   0.00290   0.00579  -0.06559
           r8          -0.00004   0.00341   0.00324  -0.00210   0.04077
           a8          -0.00189   0.00083   0.01451   0.00944  -0.03464
           d8           0.00290  -0.00582   0.00872   0.00453   0.05516
                          a6        d6        r7        a7        d7
           a6           0.44619
           d6          -0.00710   0.44351
           r7          -0.03547   0.06559   0.42496
           a7           0.13855  -0.10037   0.00772   0.44572
           d7           0.10569  -0.24764  -0.01055   0.01889   0.43300
           r8          -0.03810  -0.05061   0.04083  -0.03761   0.04859
           a8           0.12975   0.08484  -0.03530   0.13589  -0.08688
           d8          -0.09401  -0.18235  -0.05311   0.09170  -0.17183
                          r8        a8        d8
           r8           0.23105
           a8          -0.00170   0.42104
           d8           0.00118  -0.01088   0.37500
 ITU=  1  0
     Eigenvalues ---    0.01424   0.12107   0.14850   0.16218   0.19139
     Eigenvalues ---    0.24005   0.26897   0.28315   0.35087   0.38285
     Eigenvalues ---    0.40566   0.45947   0.50047   0.64291   0.66746
     Eigenvalues ---    0.74644   0.78055   0.80545
 RFO step:  Lambda=-2.21069218D-05 EMin= 1.42355879D-02
 Quintic linear search produced a step of -0.05382.
 Variable       Old X    -DE/DX   Delta X   Delta X   Delta X     New X
                                 (Linear)    (Quad)   (Total)
    r2        2.93908   0.00144  -0.00147   0.00555   0.00408   2.94316
    r3        3.33809   0.00026   0.00201  -0.00330  -0.00129   3.33680
    a3        1.96107   0.00016   0.00082  -0.00010   0.00072   1.96179
    r4        2.51998   0.00222   0.00311   0.00151   0.00462   2.52460
    a4        1.87827   0.00059   0.00247  -0.00151   0.00096   1.87923
    d4        4.18156   0.00006  -0.00043  -0.00078  -0.00121   4.18035
    r5        2.51356   0.00240   0.00332   0.00204   0.00537   2.51893
    a5        1.90387   0.00056   0.00174  -0.00189  -0.00014   1.90372
    d5        2.13147   0.00009   0.00017  -0.00009   0.00009   2.13156
    r6        2.51995   0.00219   0.00311   0.00155   0.00466   2.52461
    a6        1.87844   0.00057   0.00243  -0.00167   0.00076   1.87920
    d6        3.07761   0.00010  -0.00076   0.00636   0.00560   3.08321
    r7        2.51363   0.00239   0.00333   0.00196   0.00530   2.51892
    a7        1.90378   0.00054   0.00171  -0.00176  -0.00005   1.90373
    d7        1.02745   0.00016  -0.00007   0.00706   0.00698   1.03443
    r8        3.33815   0.00026   0.00196  -0.00333  -0.00137   3.33678
    a8        1.96104   0.00016   0.00078  -0.00002   0.00076   1.96180
    d8        5.17958  -0.00000  -0.00023   0.00665   0.00642   5.18600
         Item               Value     Threshold  Converged?
 Maximum Force            0.002404     0.000002     NO 
 RMS     Force            0.001174     0.000001     NO 
 Maximum Displacement     0.006984     0.000006     NO 
 RMS     Displacement     0.003693     0.000004     NO 
 Predicted change in Energy=-2.608348D-05
 GradGradGradGradGradGradGradGradGradGradGradGradGradGradGradGradGradGrad

 ---------------------------------------------------------------------------------------------------
                            Z-MATRIX (ANGSTROMS AND DEGREES)
   CD    Cent   Atom    N1       Length/X        N2       Alpha/Y        N3        Beta/Z          J
 ---------------------------------------------------------------------------------------------------
      1      1  C 
      2      2  C        1   1.557454(     1)
      3      3  Cl       1   1.765758(     2)      2  112.402(     8)
      4      4  F        1   1.335959(     3)      2  107.672(     9)      3  239.516(    14)      0
      5      5  F        1   1.332959(     4)      2  109.075(    10)      3  122.129(    15)      0
      6      6  F        2   1.335965(     5)      1  107.670(    11)      3  176.655(    16)      0
      7      7  F        2   1.332957(     6)      1  109.076(    12)      3   59.269(    17)      0
      8      8  Cl       2   1.765746(     7)      1  112.403(    13)      3  297.136(    18)      0
 ---------------------------------------------------------------------------------------------------
                         Z-Matrix orientation:                         
 ---------------------------------------------------------------------
 Center     Atomic      Atomic             Coordinates (Angstroms)
 Number     Number       Type             X           Y           Z
 ---------------------------------------------------------------------
      1          6           0        0.000000    0.000000    0.000000
      2          6           0        0.000000    0.000000    1.557454
      3         17           0        1.632500    0.000000   -0.672937
      4          9           0       -0.645739    1.096969   -0.405546
      5          9           0       -0.669982   -1.066833   -0.435626
      6          9           0       -1.270765    0.074269    1.962971
      7          9           0        0.643753    1.082855    1.993092
      8         17           0        0.744576   -1.452788    2.230413
 ---------------------------------------------------------------------
                    Distance matrix (angstroms):
                    1          2          3          4          5
     1  C    0.000000
     2  C    1.557454   0.000000
     3  Cl   1.765758   2.764001   0.000000
     4  F    1.335959   2.339592   2.542679   0.000000
     5  F    1.332959   2.357833   2.548701   2.164147   0.000000
     6  F    2.339576   1.335965   3.922050   2.654514   2.723293
     7  F    2.357840   1.332957   3.042682   2.723317   3.499390
     8  Cl   2.764006   1.765746   3.365776   3.922055   3.042647
                    6          7          8
     6  F    0.000000
     7  F    2.164147   0.000000
     8  Cl   2.542642   2.548720   0.000000
 Stoichiometry    C2Cl2F4
 Framework group  C1[X(C2Cl2F4)]
 Deg. of freedom    18
 Full point group                 C1      NOp   1
 Largest Abelian subgroup         C1      NOp   1
 Largest concise Abelian subgroup C1      NOp   1
                         Standard orientation:                         
 ---------------------------------------------------------------------
 Center     Atomic      Atomic             Coordinates (Angstroms)
 Number     Number       Type             X           Y           Z
 ---------------------------------------------------------------------
      1          6           0       -0.737400    0.327674    0.250311
      2          6           0        0.737397    0.327659   -0.250324
      3         17           0       -1.648290   -1.065267   -0.339516
      4          9           0       -1.314041    1.450715   -0.186785
      5          9           0       -0.744992    0.343011    1.583160
      6          9           0        1.314049    1.450679    0.186829
      7          9           0        0.745004    0.343058   -1.583170
      8         17           0        1.648281   -1.065272    0.339503
 ---------------------------------------------------------------------
 Rotational constants (GHZ):           1.8546814           1.2765783           1.1079791
 Basis read from rwf:  (5D, 7F)
 There are   208 symmetry adapted cartesian basis functions of A   symmetry.
 There are   192 symmetry adapted basis functions of A   symmetry.
   192 basis functions,   392 primitive gaussians,   208 cartesian basis functions
    41 alpha electrons       41 beta electrons
       nuclear repulsion energy       613.3945071819 Hartrees.
 NAtoms=    8 NActive=    8 NUniq=    8 SFac= 1.00D+00 NAtFMM=   60 NAOKFM=F Big=F
 Integral buffers will be    131072 words long.
 Raffenetti 2 integral format.
 Two-electron integral symmetry is turned on.
 Nuclear repulsion after empirical dispersion term =      613.3919267868 Hartrees.
 One-electron integrals computed using PRISM.
 NBasis=   192 RedAO= T EigKep=  2.28D-04  NBF=   192
 NBsUse=   192 1.00D-06 EigRej= -1.00D+00 NBFU=   192
 Initial guess from the checkpoint file:  "checkpoint.chk"
 B after Tr=     0.000000   -0.000000    0.000000
         Rot=    1.000000   -0.000069    0.000988    0.000009 Ang=  -0.11 deg.
 Requested convergence on RMS density matrix=1.00D-08 within 128 cycles.
 Requested convergence on MAX density matrix=1.00D-06.
 Requested convergence on             energy=1.00D-06.
 No special actions if energy rises.
 SCF Done:  E(RwB97XD) =  -1395.77042375     A.U. after    9 cycles
            NFock=  9  Conv=0.81D-08     -V/T= 2.0015
 DoSCS=F DFT=T ScalE2(SS,OS)=  1.000000  1.000000
 Range of M.O.s used for correlation:     1   192
 NBasis=   192 NAE=    41 NBE=    41 NFC=     0 NFV=     0
 NROrb=    192 NOA=    41 NOB=    41 NVA=   151 NVB=   151

 **** Warning!!: The largest alpha MO coefficient is  0.20937389D+02

 Symmetrizing basis deriv contribution to polar:
 IMax=3 JMax=2 DiffMx= 0.00D+00
 G2DrvN: will do     9 centers at a time, making    1 passes.
 Calling FoFCou, ICntrl=  3107 FMM=F I1Cent=   0 AccDes= 0.00D+00.
 End of G2Drv F.D. properties file   721 does not exist.
 End of G2Drv F.D. properties file   722 does not exist.
 End of G2Drv F.D. properties file   788 does not exist.
          IDoAtm=11111111
          Differentiating once with respect to electric field.
                with respect to dipole field.
          Differentiating once with respect to nuclear coordinates.
 CalDSu exits because no D1Ps are significant.
          There are    27 degrees of freedom in the 1st order CPHF.  IDoFFX=6 NUNeed=     3.
     24 vectors produced by pass  0 Test12= 2.29D-14 3.70D-09 XBig12= 2.44D+01 1.63D+00.
 AX will form    24 AO Fock derivatives at one time.
     24 vectors produced by pass  1 Test12= 2.29D-14 3.70D-09 XBig12= 3.48D+00 2.85D-01.
     24 vectors produced by pass  2 Test12= 2.29D-14 3.70D-09 XBig12= 3.36D-01 7.55D-02.
     24 vectors produced by pass  3 Test12= 2.29D-14 3.70D-09 XBig12= 1.25D-02 1.97D-02.
     24 vectors produced by pass  4 Test12= 2.29D-14 3.70D-09 XBig12= 1.68D-04 2.56D-03.
     24 vectors produced by pass  5 Test12= 2.29D-14 3.70D-09 XBig12= 1.21D-06 1.73D-04.
     24 vectors produced by pass  6 Test12= 2.29D-14 3.70D-09 XBig12= 8.87D-09 1.63D-05.
     12 vectors produced by pass  7 Test12= 2.29D-14 3.70D-09 XBig12= 5.67D-11 1.04D-06.
      3 vectors produced by pass  8 Test12= 2.29D-14 3.70D-09 XBig12= 3.41D-13 7.82D-08.
      2 vectors produced by pass  9 Test12= 2.29D-14 3.70D-09 XBig12= 2.14D-15 7.88D-09.
 InvSVY:  IOpt=1 It=  1 EMax= 3.55D-15
 Solved reduced A of dimension   185 with    27 vectors.
 Isotropic polarizability for W=    0.000000       56.91 Bohr**3.
 End of Minotr F.D. properties file   721 does not exist.
 End of Minotr F.D. properties file   722 does not exist.
 End of Minotr F.D. properties file   788 does not exist.
 Calling FoFJK, ICntrl=    100127 FMM=F ISym2X=0 I1Cent= 0 IOpClX= 0 NMat=1 NMatS=1 NMatT=0.
 ***** Axes restored to original set *****
 -------------------------------------------------------------------
 Center     Atomic                   Forces (Hartrees/Bohr)
 Number     Number              X              Y              Z
 -------------------------------------------------------------------
      1        6          -0.000054715    0.000000328    0.000120196
      2        6          -0.000037876    0.000051026   -0.000121372
      3       17           0.000030298    0.000004759   -0.000017000
      4        9           0.000011632   -0.000029795   -0.000001861
      5        9           0.000017138    0.000026520    0.000004841
      6        9           0.000030593    0.000006563    0.000002435
      7        9          -0.000012953   -0.000029597   -0.000004692
      8       17           0.000015884   -0.000029803    0.000017454
 -------------------------------------------------------------------
 Cartesian Forces:  Max     0.000121372 RMS     0.000042320
 -----------------------------------------------------------------------------------------------
                       Internal Coordinate Forces (Hartree/Bohr or radian)
  Cent   Atom   N1       Length/X         N2         Alpha/Y        N3         Beta/Z          J
 -----------------------------------------------------------------------------------------------
      1  C 
      2  C        1  -0.000106(     1)
      3  Cl       1   0.000034(     2)      2   0.000014(     8)
      4  F        1  -0.000030(     3)      2   0.000029(     9)      3  -0.000012(    14)     0
      5  F        1  -0.000031(     4)      2   0.000014(    10)      3  -0.000001(    15)     0
      6  F        2  -0.000028(     5)      1   0.000029(    11)      3  -0.000020(    16)     0
      7  F        2  -0.000032(     6)      1   0.000015(    12)      3  -0.000010(    17)     0
      8  Cl       2   0.000038(     7)      1   0.000011(    13)      3   0.000002(    18)     0
 -----------------------------------------------------------------------------------------------
 Internal  Forces:  Max     0.000106175 RMS     0.000033841

 GradGradGradGradGradGradGradGradGradGradGradGradGradGradGradGradGradGrad
 Berny optimization.
 Search for a local minimum.
 Step number   3 out of a maximum of   28
 All quantities printed in internal units (Hartrees-Bohrs-Radians)
 Second derivative matrix not updated -- analytic derivatives used.
 DE= -2.63D-05 DEPred=-2.61D-05 R= 1.01D+00
 TightC=F SS=  1.41D+00  RLast= 1.57D-02 DXNew= 7.9341D-01 4.7007D-02
 Trust test= 1.01D+00 RLast= 1.57D-02 DXMaxT set to 4.72D-01
 The second derivative matrix:
                          r2        r3        a3        r4        a4
           r2           0.26707
           r3           0.01352   0.23130
           a3           0.04060  -0.00174   0.41996
           r4           0.01820   0.04060  -0.03467   0.41059
           a4           0.03750  -0.03796   0.12970   0.00585   0.44326
           d4           0.00438  -0.05036   0.08472   0.00952  -0.00693
           r5           0.01845   0.04063  -0.03522   0.05350  -0.03521
           a5           0.03759  -0.03741   0.13560  -0.03406   0.13774
           d5           0.00116   0.04832  -0.08654  -0.06508   0.10503
           r6           0.01820   0.00314   0.01490   0.00429  -0.00498
           a6           0.03750   0.01337   0.02910  -0.00498   0.00358
           d6           0.00438  -0.00002  -0.00185  -0.00985   0.00667
           r7           0.01845   0.00340   0.00092   0.00444  -0.00150
           a7           0.03758   0.00319   0.01394  -0.00252   0.00066
           d7           0.00116  -0.00215   0.00904   0.00947  -0.00209
           r8           0.01352   0.00340   0.00550   0.00314   0.01337
           a8           0.04060   0.00550   0.02925   0.01490   0.02910
           d8          -0.00461   0.00069  -0.02023  -0.00028  -0.00052
                          d4        r5        a5        d5        r6
           d4           0.44138
           r5           0.06507   0.41711
           a5          -0.09986   0.00724   0.44264
           d5          -0.24638  -0.01029   0.01797   0.43098
           r6          -0.00985   0.00444  -0.00252   0.00947   0.41058
           a6           0.00667  -0.00150   0.00067  -0.00209   0.00585
           d6           0.00708   0.00790  -0.00166   0.00315   0.00951
           r7           0.00790   0.00440   0.02045  -0.00017   0.05350
           a7          -0.00166   0.02045   0.04381   0.00282  -0.03406
           d7           0.00315  -0.00017   0.00282   0.00574  -0.06508
           r8          -0.00002   0.00340   0.00319  -0.00215   0.04061
           a8          -0.00185   0.00092   0.01394   0.00904  -0.03468
           d8           0.00288  -0.00578   0.00835   0.00442   0.05501
                          a6        d6        r7        a7        d7
           a6           0.44328
           d6          -0.00693   0.44140
           r7          -0.03521   0.06508   0.41711
           a7           0.13774  -0.09985   0.00725   0.44263
           d7           0.10503  -0.24638  -0.01030   0.01797   0.43097
           r8          -0.03797  -0.05036   0.04062  -0.03741   0.04832
           a8           0.12971   0.08472  -0.03522   0.13560  -0.08653
           d8          -0.09385  -0.18174  -0.05290   0.09158  -0.17126
                          r8        a8        d8
           r8           0.23131
           a8          -0.00174   0.41996
           d8           0.00116  -0.01152   0.37352
 ITU=  1  1  0
     Eigenvalues ---    0.01402   0.11993   0.14796   0.16177   0.18927
     Eigenvalues ---    0.23712   0.26792   0.28198   0.34865   0.37626
     Eigenvalues ---    0.39986   0.45230   0.49295   0.64035   0.66514
     Eigenvalues ---    0.74364   0.77563   0.80030
 RFO step:  Lambda=-7.28890638D-08 EMin= 1.40157110D-02
 Quintic linear search produced a step of -0.02231.
 Variable       Old X    -DE/DX   Delta X   Delta X   Delta X     New X
                                 (Linear)    (Quad)   (Total)
    r2        2.94316  -0.00011  -0.00009  -0.00035  -0.00044   2.94272
    r3        3.33680   0.00003   0.00003   0.00020   0.00023   3.33703
    a3        1.96179   0.00001  -0.00002  -0.00002  -0.00004   1.96175
    r4        2.52460  -0.00003  -0.00010   0.00004  -0.00006   2.52453
    a4        1.87923   0.00003  -0.00002   0.00013   0.00011   1.87933
    d4        4.18035  -0.00001   0.00003   0.00002   0.00005   4.18040
    r5        2.51893  -0.00003  -0.00012   0.00005  -0.00007   2.51885
    a5        1.90372   0.00001   0.00000   0.00008   0.00009   1.90381
    d5        2.13156  -0.00000  -0.00000  -0.00002  -0.00002   2.13154
    r6        2.52461  -0.00003  -0.00010   0.00003  -0.00007   2.52453
    a6        1.87920   0.00003  -0.00002   0.00015   0.00013   1.87933
    d6        3.08321  -0.00002  -0.00013  -0.00052  -0.00065   3.08257
    r7        2.51892  -0.00003  -0.00012   0.00005  -0.00007   2.51885
    a7        1.90373   0.00002   0.00000   0.00007   0.00008   1.90381
    d7        1.03443  -0.00001  -0.00016  -0.00058  -0.00073   1.03370
    r8        3.33678   0.00004   0.00003   0.00023   0.00026   3.33703
    a8        1.96180   0.00001  -0.00002  -0.00004  -0.00005   1.96175
    d8        5.18600   0.00000  -0.00014  -0.00050  -0.00064   5.18535
         Item               Value     Threshold  Converged?
 Maximum Force            0.000106     0.000002     NO 
 RMS     Force            0.000034     0.000001     NO 
 Maximum Displacement     0.000731     0.000006     NO 
 RMS     Displacement     0.000312     0.000004     NO 
 Predicted change in Energy=-4.957561D-08
 GradGradGradGradGradGradGradGradGradGradGradGradGradGradGradGradGradGrad

 ---------------------------------------------------------------------------------------------------
                            Z-MATRIX (ANGSTROMS AND DEGREES)
   CD    Cent   Atom    N1       Length/X        N2       Alpha/Y        N3        Beta/Z          J
 ---------------------------------------------------------------------------------------------------
      1      1  C 
      2      2  C        1   1.557219(     1)
      3      3  Cl       1   1.765881(     2)      2  112.400(     8)
      4      4  F        1   1.335926(     3)      2  107.678(     9)      3  239.519(    14)      0
      5      5  F        1   1.332920(     4)      2  109.080(    10)      3  122.128(    15)      0
      6      6  F        2   1.335926(     5)      1  107.678(    11)      3  176.618(    16)      0
      7      7  F        2   1.332920(     6)      1  109.080(    12)      3   59.227(    17)      0
      8      8  Cl       2   1.765882(     7)      1  112.400(    13)      3  297.099(    18)      0
 ---------------------------------------------------------------------------------------------------
                         Z-Matrix orientation:                         
 ---------------------------------------------------------------------
 Center     Atomic      Atomic             Coordinates (Angstroms)
 Number     Number       Type             X           Y           Z
 ---------------------------------------------------------------------
      1          6           0        0.000000    0.000000    0.000000
      2          6           0        0.000000    0.000000    1.557219
      3         17           0        1.632638    0.000000   -0.672925
      4          9           0       -0.645648    1.096936   -0.405671
      5          9           0       -0.669919   -1.066785   -0.435722
      6          9           0       -1.270626    0.075085    1.962892
      7          9           0        0.644510    1.082326    1.992941
      8         17           0        0.743713   -1.453411    2.230143
 ---------------------------------------------------------------------
                    Distance matrix (angstroms):
                    1          2          3          4          5
     1  C    0.000000
     2  C    1.557219   0.000000
     3  Cl   1.765881   2.763883   0.000000
     4  F    1.335926   2.339459   2.542692   0.000000
     5  F    1.332920   2.357676   2.548738   2.164066   0.000000
     6  F    2.339460   1.335926   3.922004   2.654217   2.723612
     7  F    2.357676   1.332920   3.042149   2.723612   3.499257
     8  Cl   2.763883   1.765882   3.366066   3.922004   3.042149
                    6          7          8
     6  F    0.000000
     7  F    2.164066   0.000000
     8  Cl   2.542693   2.548738   0.000000
 Stoichiometry    C2Cl2F4
 Framework group  C1[X(C2Cl2F4)]
 Deg. of freedom    18
 Full point group                 C1      NOp   1
 Largest Abelian subgroup         C1      NOp   1
 Largest concise Abelian subgroup C1      NOp   1
                         Standard orientation:                         
 ---------------------------------------------------------------------
 Center     Atomic      Atomic             Coordinates (Angstroms)
 Number     Number       Type             X           Y           Z
 ---------------------------------------------------------------------
      1          6           0       -0.737221    0.327686    0.250475
      2          6           0        0.737221    0.327687   -0.250475
      3         17           0       -1.648411   -1.065102   -0.339616
      4          9           0       -1.313996    1.450823   -0.186096
      5          9           0       -0.744572    0.342579    1.583292
      6          9           0        1.313996    1.450823    0.186096
      7          9           0        0.744573    0.342579   -1.583291
      8         17           0        1.648412   -1.065103    0.339615
 ---------------------------------------------------------------------
 Rotational constants (GHZ):           1.8547523           1.2765592           1.1080489
 Basis read from rwf:  (5D, 7F)
 There are   208 symmetry adapted cartesian basis functions of A   symmetry.
 There are   192 symmetry adapted basis functions of A   symmetry.
   192 basis functions,   392 primitive gaussians,   208 cartesian basis functions
    41 alpha electrons       41 beta electrons
       nuclear repulsion energy       613.4032568001 Hartrees.
 NAtoms=    8 NActive=    8 NUniq=    8 SFac= 1.00D+00 NAtFMM=   60 NAOKFM=F Big=F
 Integral buffers will be    131072 words long.
 Raffenetti 2 integral format.
 Two-electron integral symmetry is turned on.
 Nuclear repulsion after empirical dispersion term =      613.4006766071 Hartrees.
 One-electron integrals computed using PRISM.
 NBasis=   192 RedAO= T EigKep=  2.28D-04  NBF=   192
 NBsUse=   192 1.00D-06 EigRej= -1.00D+00 NBFU=   192
 Initial guess from the checkpoint file:  "checkpoint.chk"
 B after Tr=    -0.000000   -0.000000   -0.000000
         Rot=    1.000000    0.000006   -0.000073   -0.000001 Ang=   0.01 deg.
 Requested convergence on RMS density matrix=1.00D-08 within 128 cycles.
 Requested convergence on MAX density matrix=1.00D-06.
 Requested convergence on             energy=1.00D-06.
 No special actions if energy rises.
 SCF Done:  E(RwB97XD) =  -1395.77042380     A.U. after    7 cycles
            NFock=  7  Conv=0.89D-08     -V/T= 2.0015
 DoSCS=F DFT=T ScalE2(SS,OS)=  1.000000  1.000000
 Range of M.O.s used for correlation:     1   192
 NBasis=   192 NAE=    41 NBE=    41 NFC=     0 NFV=     0
 NROrb=    192 NOA=    41 NOB=    41 NVA=   151 NVB=   151

 **** Warning!!: The largest alpha MO coefficient is  0.20928116D+02

 Symmetrizing basis deriv contribution to polar:
 IMax=3 JMax=2 DiffMx= 0.00D+00
 G2DrvN: will do     9 centers at a time, making    1 passes.
 Calling FoFCou, ICntrl=  3107 FMM=F I1Cent=   0 AccDes= 0.00D+00.
 End of G2Drv F.D. properties file   721 does not exist.
 End of G2Drv F.D. properties file   722 does not exist.
 End of G2Drv F.D. properties file   788 does not exist.
          IDoAtm=11111111
          Differentiating once with respect to electric field.
                with respect to dipole field.
          Differentiating once with respect to nuclear coordinates.
 CalDSu exits because no D1Ps are significant.
          There are    27 degrees of freedom in the 1st order CPHF.  IDoFFX=6 NUNeed=     3.
     24 vectors produced by pass  0 Test12= 2.29D-14 3.70D-09 XBig12= 2.44D+01 1.63D+00.
 AX will form    24 AO Fock derivatives at one time.
     24 vectors produced by pass  1 Test12= 2.29D-14 3.70D-09 XBig12= 3.48D+00 2.85D-01.
     24 vectors produced by pass  2 Test12= 2.29D-14 3.70D-09 XBig12= 3.36D-01 7.56D-02.
     24 vectors produced by pass  3 Test12= 2.29D-14 3.70D-09 XBig12= 1.25D-02 1.97D-02.
     24 vectors produced by pass  4 Test12= 2.29D-14 3.70D-09 XBig12= 1.68D-04 2.56D-03.
     24 vectors produced by pass  5 Test12= 2.29D-14 3.70D-09 XBig12= 1.22D-06 1.73D-04.
     24 vectors produced by pass  6 Test12= 2.29D-14 3.70D-09 XBig12= 8.89D-09 1.63D-05.
     12 vectors produced by pass  7 Test12= 2.29D-14 3.70D-09 XBig12= 5.68D-11 1.04D-06.
      3 vectors produced by pass  8 Test12= 2.29D-14 3.70D-09 XBig12= 3.42D-13 7.82D-08.
      2 vectors produced by pass  9 Test12= 2.29D-14 3.70D-09 XBig12= 2.14D-15 7.88D-09.
 InvSVY:  IOpt=1 It=  1 EMax= 8.88D-15
 Solved reduced A of dimension   185 with    27 vectors.
 Isotropic polarizability for W=    0.000000       56.91 Bohr**3.
 End of Minotr F.D. properties file   721 does not exist.
 End of Minotr F.D. properties file   722 does not exist.
 End of Minotr F.D. properties file   788 does not exist.
 Calling FoFJK, ICntrl=    100127 FMM=F ISym2X=0 I1Cent= 0 IOpClX= 0 NMat=1 NMatS=1 NMatT=0.
 ***** Axes restored to original set *****
 -------------------------------------------------------------------
 Center     Atomic                   Forces (Hartrees/Bohr)
 Number     Number              X              Y              Z
 -------------------------------------------------------------------
      1        6          -0.000001129   -0.000000952   -0.000000063
      2        6           0.000000786    0.000001097    0.000000220
      3       17           0.000000131   -0.000000066    0.000000029
      4        9           0.000000079   -0.000000195    0.000000001
      5        9           0.000000181    0.000000221    0.000000140
      6        9           0.000000245   -0.000000047   -0.000000055
      7        9          -0.000000169   -0.000000168   -0.000000165
      8       17          -0.000000124    0.000000109   -0.000000107
 -------------------------------------------------------------------
 Cartesian Forces:  Max     0.000001129 RMS     0.000000429
 -----------------------------------------------------------------------------------------------
                       Internal Coordinate Forces (Hartree/Bohr or radian)
  Cent   Atom   N1       Length/X         N2         Alpha/Y        N3         Beta/Z          J
 -----------------------------------------------------------------------------------------------
      1  C 
      2  C        1  -0.000000(     1)
      3  Cl       1   0.000000(     2)      2  -0.000000(     8)
      4  F        1  -0.000000(     3)      2   0.000000(     9)      3  -0.000000(    14)     0
      5  F        1  -0.000000(     4)      2  -0.000000(    10)      3  -0.000000(    15)     0
      6  F        2  -0.000000(     5)      1   0.000000(    11)      3   0.000000(    16)     0
      7  F        2  -0.000000(     6)      1  -0.000000(    12)      3   0.000000(    17)     0
      8  Cl       2  -0.000000(     7)      1  -0.000000(    13)      3  -0.000000(    18)     0
 -----------------------------------------------------------------------------------------------
 Internal  Forces:  Max     0.000000314 RMS     0.000000178

 GradGradGradGradGradGradGradGradGradGradGradGradGradGradGradGradGradGrad
 Berny optimization.
 Search for a local minimum.
 Step number   4 out of a maximum of   28
 All quantities printed in internal units (Hartrees-Bohrs-Radians)
 Second derivative matrix not updated -- analytic derivatives used.
 DE= -5.09D-08 DEPred=-4.96D-08 R= 1.03D+00
 Trust test= 1.03D+00 RLast= 1.32D-03 DXMaxT set to 4.72D-01
 The second derivative matrix:
                          r2        r3        a3        r4        a4
           r2           0.26738
           r3           0.01352   0.23118
           a3           0.04061  -0.00174   0.42000
           r4           0.01820   0.04060  -0.03468   0.41069
           a4           0.03750  -0.03796   0.12970   0.00585   0.44332
           d4           0.00440  -0.05036   0.08473   0.00953  -0.00693
           r5           0.01846   0.04063  -0.03522   0.05351  -0.03523
           a5           0.03761  -0.03740   0.13559  -0.03408   0.13779
           d5           0.00119   0.04832  -0.08655  -0.06509   0.10505
           r6           0.01820   0.00314   0.01490   0.00429  -0.00499
           a6           0.03750   0.01337   0.02909  -0.00499   0.00360
           d6           0.00440  -0.00002  -0.00185  -0.00985   0.00669
           r7           0.01846   0.00340   0.00092   0.00443  -0.00149
           a7           0.03761   0.00319   0.01399  -0.00251   0.00065
           d7           0.00119  -0.00215   0.00908   0.00947  -0.00208
           r8           0.01352   0.00340   0.00550   0.00314   0.01337
           a8           0.04061   0.00550   0.02922   0.01490   0.02909
           d8          -0.00459   0.00069  -0.02023  -0.00028  -0.00053
                          d4        r5        a5        d5        r6
           d4           0.44140
           r5           0.06509   0.41722
           a5          -0.09989   0.00725   0.44273
           d5          -0.24639  -0.01030   0.01807   0.43100
           r6          -0.00985   0.00443  -0.00251   0.00947   0.41069
           a6           0.00669  -0.00149   0.00065  -0.00208   0.00585
           d6           0.00708   0.00790  -0.00165   0.00315   0.00953
           r7           0.00790   0.00440   0.02045  -0.00017   0.05351
           a7          -0.00165   0.02045   0.04381   0.00282  -0.03408
           d7           0.00315  -0.00017   0.00282   0.00574  -0.06509
           r8          -0.00002   0.00340   0.00319  -0.00215   0.04060
           a8          -0.00185   0.00092   0.01399   0.00908  -0.03468
           d8           0.00288  -0.00578   0.00839   0.00443   0.05500
                          a6        d6        r7        a7        d7
           a6           0.44332
           d6          -0.00693   0.44140
           r7          -0.03523   0.06509   0.41722
           a7           0.13779  -0.09989   0.00725   0.44273
           d7           0.10505  -0.24639  -0.01030   0.01807   0.43100
           r8          -0.03796  -0.05036   0.04063  -0.03740   0.04832
           a8           0.12970   0.08473  -0.03522   0.13559  -0.08655
           d8          -0.09383  -0.18172  -0.05291   0.09157  -0.17127
                          r8        a8        d8
           r8           0.23118
           a8          -0.00174   0.42000
           d8           0.00116  -0.01147   0.37355
 ITU=  0  1  1  0
     Eigenvalues ---    0.01403   0.11994   0.14793   0.16172   0.18931
     Eigenvalues ---    0.23736   0.26791   0.28198   0.34865   0.37635
     Eigenvalues ---    0.39993   0.45241   0.49306   0.64036   0.66518
     Eigenvalues ---    0.74365   0.77576   0.80048
 RFO step:  Lambda= 0.00000000D+00 EMin= 1.40294747D-02
 Quintic linear search produced a step of  0.00081.
 Variable       Old X    -DE/DX   Delta X   Delta X   Delta X     New X
                                 (Linear)    (Quad)   (Total)
    r2        2.94272  -0.00000  -0.00000   0.00000  -0.00000   2.94272
    r3        3.33703   0.00000   0.00000   0.00000   0.00000   3.33703
    a3        1.96175  -0.00000  -0.00000  -0.00000  -0.00000   1.96175
    r4        2.52453  -0.00000  -0.00000  -0.00000  -0.00000   2.52453
    a4        1.87933   0.00000   0.00000   0.00000   0.00000   1.87933
    d4        4.18040  -0.00000   0.00000  -0.00000  -0.00000   4.18040
    r5        2.51885  -0.00000  -0.00000  -0.00000  -0.00000   2.51885
    a5        1.90381  -0.00000   0.00000  -0.00000  -0.00000   1.90381
    d5        2.13154  -0.00000  -0.00000  -0.00000  -0.00000   2.13153
    r6        2.52453  -0.00000  -0.00000  -0.00000  -0.00000   2.52453
    a6        1.87933   0.00000   0.00000  -0.00000   0.00000   1.87933
    d6        3.08257   0.00000  -0.00000   0.00000   0.00000   3.08257
    r7        2.51885  -0.00000  -0.00000  -0.00000  -0.00000   2.51885
    a7        1.90381  -0.00000   0.00000  -0.00000  -0.00000   1.90381
    d7        1.03370   0.00000  -0.00000   0.00000   0.00000   1.03370
    r8        3.33703  -0.00000   0.00000  -0.00000  -0.00000   3.33703
    a8        1.96175  -0.00000  -0.00000  -0.00000  -0.00000   1.96175
    d8        5.18535  -0.00000  -0.00000   0.00000   0.00000   5.18535
         Item               Value     Threshold  Converged?
 Maximum Force            0.000000     0.000002     YES
 RMS     Force            0.000000     0.000001     YES
 Maximum Displacement     0.000001     0.000006     YES
 RMS     Displacement     0.000001     0.000004     YES
 Predicted change in Energy=-8.630635D-13
 Optimization completed.
    -- Stationary point found.
                       ----------------------------
                       !   Optimized Parameters   !
                       ! (Angstroms and Degrees)  !
 ----------------------                            ----------------------
 !      Name          Value   Derivative information (Atomic Units)     !
[...]
 0.00008826,-0.00019743,-0.00015432,0.00041307,-0.00002507,-0.00010483,
 -0.00011179,-0.00277345,-0.00105873,-0.00132234,0.00001687,-0.00052561
 ,-0.00678602,-0.00071605,0.00702735,0.00112506,-0.00000718,-0.00046734
 ,0.00032906,0.00026443,-0.00068590,0.00007050,-0.00006644,-0.00014347,
 0.00743919,0.00108283,-0.00533576,-0.00087071,-0.00021658,0.00026553,0
 .00396081,0.00858343,0.00402474,0.00026849,-0.00006383,-0.00008224,-0.
 00002888,-0.00012364,-0.00009128,0.00007177,0.00015631,-0.00000544,0.0
 0001072,0.00010715,-0.00060195,-0.00360492,-0.00128050,-0.00120058,-0.
 00171855,0.00867944,0.01440699,0.00963076,0.00011692,-0.00004016,0.000
 00482,-0.00007867,0.00000125,0.00003301,0.00002974,0.00016726,-0.00033
 413,0.00052200,-0.00036069,-0.00066901,-0.00846531,-0.01336038,0.00011
 586,0.00083251,-0.00036052,0.00314512,0.00670699,0.00202866,-0.0000321
 6,-0.00002367,0.00004275,-0.00014193,0.00002993,-0.00014416,-0.0002950
 4,-0.00015711,0.00015320,0.00054173,0.00008039,0.00003726,-0.00353765,
 -0.00733880,-0.00173613,-0.00126442,0.00102304,0.00030006,0.00537773,0
 .01232351,-0.00239675,0.00044036,0.00013630,-0.00059569,-0.00011095,0.
 00021415,-0.00051829,0.00000260,-0.00020033,-0.00000630,0.00049966,-0.
 00010543,-0.00025349,0.00019269,0.00047637,0.00020405,-0.00513668,0.00
 125241,-0.00140931,0.00062132,0.01257328,-0.03051747,0.00955444,-0.000
 27455,0.00036983,-0.00046123,0.00023477,-0.00042401,0.00099876,-0.0000
 1941,0.00022595,-0.00003896,0.00007867,-0.00007907,0.00009456,0.000022
 46,0.00038625,-0.00013024,-0.01386777,0.03144868,0.00002300,0.00127681
 ,-0.00195752,-0.00245678,0.00938158,0.00903295,-0.00013974,-0.00074078
 ,0.00109760,-0.00019663,0.00019003,-0.00046770,0.00004286,-0.00007192,
 0.00004353,-0.00056741,0.00021105,0.00009343,0.00002829,0.00039188,-0.
 00002109,0.00326650,-0.01063851,-0.00782087,-0.01405940,0.01066966,0.0
 1845259,-0.00595350,0.00379811,0.05018085,0.01022096,-0.00306858,-0.00
 823858,0.00306254,-0.00416912,0.00651747,-0.01392439,0.01940334,0.0013
 0388,-0.00864434,-0.01367914,-0.03912965,0.00608852,-0.00358260,0.0501
 8994,-0.03051817,-0.00873479,0.01764842,-0.00152351,0.00013347,0.00098
 347,0.03559073,-0.00869111,0.00952316,0.00250260,0.00000520,-0.0004187
 3,0.00073815,0.00837501,-0.00987249,0.01663136,0.00231449,0.00495088,0
 .00024186,0.00081274,-0.00125509,-0.01804767,-0.00260634,-0.00426585,0
 .02002445,-0.00226306,-0.00393153,0.00083712,0.00062777,-0.00049027,-0
 .00209302,-0.00015235,0.00084068,-0.01799101,-0.00568762,-0.02017070,0
 .01792045,0.00075721,-0.00031951,0.00191195,0.00169291,0.00013284,-0.0
 0047042,0.00263680,0.01952834,-0.00286313,0.01834519,-0.00602993,-0.00
 015588,0.00173258,-0.00286128,-0.00034928,0.00007690,0.00000386,0.0039
 1070,-0.01919402,0.00794912,0.01584895,0.00237150,-0.00178837,-0.00040
 651,0.00126361,-0.00040670,-0.00209943,0.00042081,0.00092812,-0.000864
 09,0.00085212,-0.00041207,-0.01262089,0.00607077,-0.01478816,-0.011547
 88,0.00047892,0.00078021,-0.00006293,-0.00140669,0.00025331,0.00053655
 ,-0.00091144,0.00088245,-0.00104060,-0.00430416,0.01270424,-0.00226997
 ,-0.01367132,-0.00488533,0.00107190,0.00153337,-0.00096623,-0.00032646
 ,-0.00001050,0.00000777,-0.00008753,0.00041380,0.00045990,0.00157732,0
 .01163312,0.00424425,-0.00064077,0.00000234,0.00192574,-0.00861942,-0.
 02033697,0.01773916,0.00005405,-0.00005750,0.00006921,0.00007013,0.000
 03604,-0.00006875,-0.00007278,-0.00024845,-0.00040870,0.00962701,-0.00
 012813,0.00115976,0.00043316,-0.01690992,0.00845822,0.00466556,0.00012
 414,-0.00000889,-0.00015664,0.00000145,0.00009020,-0.00026958,-0.00008
 182,-0.00010017,-0.00005343,0.01676083,-0.00806701,0.00161259,0.000650
 56,-0.00286156,0.01763822,0.00580965,-0.00602861,0.00027084,-0.0000318
 5,-0.00002474,-0.00020866,-0.00018330,0.00028070,0.00006804,0.00013528
 ,0.00022312,-0.01886854,-0.00526249,0.00794582,-0.00017205,0.00059734,
 0.00012835,-0.01185010,-0.00808103,-0.00945895,0.00016969,0.00003979,-
 0.00015268,0.00003922,-0.00019086,0.00008942,0.00016857,0.00034465,0.0
 0044672,0.00053431,-0.00019721,-0.00073929,0.01094527,0.00138226,0.000
 54614,-0.00039397,-0.01178667,0.01293940,-0.00684048,-0.00011561,-0.00
 002487,-0.00005203,-0.00002390,-0.00021203,0.00012271,-0.00034322,0.00
 016958,0.00023979,0.00157005,-0.00052586,-0.00084111,0.00773652,-0.010
 87063,0.00087652,0.00165131,-0.00096775,-0.01113159,-0.00823628,-0.004
 89691,-0.00007474,-0.00004142,-0.00004396,0.00013755,-0.00038812,0.000
 22243,0.00000990,0.00050685,0.00096096,0.00041109,0.00011076,0.0004610
 2,0.00963197,0.00669225,0.00425406,-0.00070397,0.00042558,0.00020947,0
 .00827891,0.01115893,-0.00581090,0.00041874,0.00006008,-0.00051098,-0.
 00002277,-0.00009659,-0.00015101,0.00004617,-0.00002361,-0.00000327,-0
 .00095255,0.00043066,0.00022680,0.00016506,0.00158057,0.00013931,-0.00
 722900,0.00055329,-0.00124026,0.00121191,0.01112050,-0.02926093,0.0168
 4949,-0.00006850,0.00041468,-0.00037849,0.00008472,0.00006842,0.000226
 82,-0.00017885,0.00009853,-0.00008483,0.00227367,-0.00100628,-0.000276
 74,-0.00024922,-0.00202177,-0.00029536,-0.01353559,0.03294820,0.000610
 46,0.00059078,-0.00125751,-0.00551445,0.01585493,0.00494782,-0.0001046
 8,-0.00062768,0.00062653,-0.00017093,-0.00001032,-0.00002481,0.0000237
 7,-0.00016039,-0.00004444,-0.00079921,0.00053264,0.00000423,0.00005445
 ,0.00107283,0.00001013,0.00590072,-0.01725257,-0.00426202,-0.02951435,
 -0.02826725,0.13337708,0.00433220,-0.01717522,-0.04806386,0.00297357,0
 .00030381,0.00031196,0.12250707,-0.00005233,0.00310237,-0.00404229,0.0
 4949855,-0.01867864,-0.00374202,-0.00156574,0.02849967,-0.01726667,-0.
 00397771,-0.04805727,0.00754382,-0.00648936,0.00630452,-0.00003176,-0.
 00031305,0.00064592,-0.00349998,-0.00650952,0.00362659,0.00190683,0.00
 010040,-0.00019511,-0.00007689,0.00583762,-0.00351187,0.00884458,0.001
 63495,-0.00272031,-0.00183466,0.00047069,0.00189013,-0.00869381,-0.001
 79797,0.00161292,0.01072808,0.04536293,-0.00994006,-0.00134920,0.00132
 019,-0.00020828,-0.00286956,0.00021851,0.00081232,-0.00782885,0.041891
 23,-0.09796109,0.02806245,0.00125880,-0.00153857,0.00084614,0.00248098
 ,0.00001119,-0.00088966,-0.04575962,0.09657498,-0.01051772,0.02974837,
 0.01632782,-0.00003876,0.00026920,-0.00042344,0.00023971,-0.00015926,0
 .00040286,0.00949401,-0.02958944,-0.01631317,0.01052419,-0.01069593,-0
 .00068773,-0.00091374,-0.00100491,-0.00037764,-0.00127326,0.00028146,0
 .00018532,0.00061154,0.00084686,0.00069553,-0.00928648,-0.00708424,-0.
 03973885,-0.00865179,-0.00159472,-0.00063212,-0.00109838,-0.00132578,0
 .00006695,0.00038664,-0.00087888,0.00242418,-0.00021672,0.01063249,0.0
 3765822,-0.00033227,-0.01024843,0.00660644,-0.00090869,-0.00056894,-0.
 00211056,0.00036681,0.00004260,0.00032835,0.00033958,0.00067544,0.0005
 0331,0.00087977,0.01006406,-0.00460623,-0.00254465,0.00064843,0.000848
 39,-0.11080107,-0.02028901,0.02950375,-0.00018774,0.00002630,0.0007373
 7,0.00070328,-0.00090797,0.00025439,0.00041631,0.00027735,0.00003101,0
 .11204379,0.00070872,-0.00034166,0.00019868,-0.01681486,0.02355576,0.0
 0393652,-0.00000760,0.00002947,-0.00008810,-0.00008830,0.00019440,-0.0
 0009852,-0.00005328,0.00004111,0.00015224,0.01557126,-0.02327602,0.000
 25641,0.00008822,-0.00042365,0.03127541,0.00418972,0.01632879,0.000298
 35,-0.00003212,-0.00051607,-0.00020358,0.00018229,-0.00006745,-0.00019
 958,-0.00006091,0.00008699,-0.03066471,-0.00502750,-0.01631623,0.00036
 429,-0.00094228,-0.00080665,-0.02209439,-0.02375348,-0.00738211,0.0001
 6410,0.00009662,0.00005053,0.00002792,0.00007886,0.00003668,-0.0000244
 4,-0.00001077,-0.00020001,0.00205132,-0.00014347,-0.00051039,0.0192986
 7,-0.00035226,-0.00190975,-0.00083978,-0.02737147,-0.00709180,-0.00454
 147,0.00018785,0.00003411,-0.00027372,-0.00025145,0.00042970,-0.000204
 91,-0.00008265,-0.00007198,-0.00036055,0.00158594,0.00097457,0.0005201
 8,0.02524128,0.00906021,-0.00009282,-0.00106947,-0.00211208,-0.0089670
 9,-0.00495216,0.00659490,0.00029668,-0.00004610,-0.00042584,0.00012035
 ,0.00009698,0.00008632,-0.00022992,-0.00034235,-0.00038286,0.00044945,
 0.00061014,0.00050441,0.00855258,0.00535724,-0.00459554,-0.00007496,0.
 00007965,-0.00036262,0.00970951,-0.00540597,-0.00117296,0.00015395,-0.
 00005156,-0.00010170,-0.00002319,0.00011086,-0.00016383,-0.00005410,-0
 .00001544,-0.00017620,-0.00168126,0.00082754,-0.00025190,0.00021251,0.
 00104276,-0.00012924,-0.00824178,-0.00033435,-0.00015470,0.00054112,-0
 .00538051,0.00147810,0.00647752,-0.00037082,-0.00006193,0.00055711,0.0
 0007662,-0.00013477,0.00025128,0.00007597,0.00025249,0.00024359,0.0030
 8771,-0.00117765,0.00014013,-0.00056676,-0.00142510,0.00034572,0.00341
 215,0.00122425,0.00125165,-0.00141267,0.00188596,-0.00257150,0.0086114
 9,-0.00272223,0.00054178,0.00016285,-0.00057253,-0.00041433,0.00061580
 ,-0.00051625,-0.00026574,-0.00008054,-0.00042544,-0.00115964,0.0003165
 3,0.00040320,0.00025935,0.00034300,0.00033064,0.00235854,-0.00855629,0
 .00161683,0.05861885,0.01905048,0.12138807,0.06509892,0.00789621,-0.02
 408403,0.00074887,-0.00003125,0.00356822,0.09291349,0.00100652,0.00124
 805,0.00537356,0.03656890,0.08704568,0.00315686,0.00562198,0.02241969,
 -0.02262721,0.06152778,-0.02407866,0.00825920,-0.00053659,-0.00299314,
 -0.00063209,-0.00011607,-0.00113727,-0.00734852,-0.00097122,-0.0013145
 8,0.00078157,-0.00022537,0.00022928,0.00003917,0.00124156,-0.00018756,
 -0.00260830,0.00093331,0.00066204,-0.00028817,-0.00009811,0.00033549,0
 .00290242,-0.00079268,-0.00118081,-0.02899981,0.05878747,-0.02798409,-
 0.00002464,-0.00028046,0.00098680,0.00048694,-0.00017866,-0.00017119,0
 .02831808,0.06112685,-0.04487248,0.03709563,0.00078793,-0.00081457,-0.
 00003262,0.00042553,0.00067246,-0.00031947,-0.05938073,0.04734395,-0.0
 2756205,0.03648226,0.00202125,-0.00031373,0.00061146,0.00098272,0.0001
 6247,-0.00030277,0.00042151,0.02754360,-0.03676191,-0.00339316,-0.0371
 8995,-0.07748341,-0.03723902,-0.00043066,0.00000495,-0.00036297,-0.001
 34104,0.00002434,0.00036866,-0.00057907,-0.00233681,0.00012169,0.03947
 421,-0.07964224,-0.07526683,-0.05033745,-0.00017175,-0.00094492,-0.000
 77469,-0.00133398,0.00051210,0.00045576,0.00173201,-0.00298713,0.00086
 530,0.07909995,0.07792207,-0.03961103,-0.05236385,-0.00514187,0.001172
 60,0.00149753,0.00281232,-0.00028604,0.00028305,0.00058797,0.00073125,
 -0.00072634,0.00054919,0.03796626,0.05098579,0.00266654,-0.00085606,0.
 00036378,-0.00047834,-0.09021382,0.02980543,0.04576220,0.00009454,-0.0
 0000484,0.00020812,0.00095562,-0.00095042,0.00021687,0.00016400,0.0005
 4462,0.00074140,0.09157526,-0.00070556,0.00001819,0.00086226,0.0274688
 0,0.01633158,-0.00801094,-0.00005240,-0.00005085,0.00014230,-0.0006209
 7,0.00015247,-0.00090072,0.00020591,0.00013993,0.00011353,-0.02701794,
 -0.01589118,0.00068640,-0.00000066,0.00098244,0.04503170,-0.00791518,0
 .00202253,0.00044702,0.00002251,-0.00039934,-0.00090062,-0.00021650,0.
 00012491,-0.00036472,-0.00017089,-0.00030634,-0.04526931,0.00777239,-0
 .00339629,-0.00076994,-0.00034691,-0.00052520,-0.00364240,-0.06244577,
 -0.02783760,0.00034777,0.00006438,-0.00020376,-0.00015964,0.00037929,0
 .00001399,0.00002267,-0.00005305,-0.00048306,-0.00225175,0.00087458,0.
 00071417,0.00579457,-0.00016995,-0.00060522,-0.00067926,-0.06029361,-0
 .10876958,-0.05606154,0.00062947,0.00011202,-0.00050124,0.00004087,0.0
 0046370,-0.00040201,0.00009534,0.00004460,-0.00040178,-0.00319009,-0.0
 0132419,0.00050216,0.06183928,0.11157761,0.00079878,0.00172483,0.00281
 083,-0.02856293,-0.05909633,-0.00515302,0.00065003,0.00007246,-0.00047
 916,-0.00023774,0.00071176,-0.00030702,-0.00013771,-0.00061315,-0.0006
 8962,-0.00097670,0.00032032,0.00055029,0.02808413,0.05700564,0.0026774
 0,0.00018883,0.00019643,0.00055266,0.00128124,-0.00454350,0.00205917,0
 .00013277,0.00004960,-0.00020782,0.00000252,-0.00005163,-0.00018285,-0
 .00012016,-0.00017555,-0.00023138,0.00053219,-0.00015241,-0.00034465,0
 .00065869,0.00104867,0.00038213,-0.00267535,0.00030513,-0.00059520,-0.
 00099251,-0.00410364,0.00567448,-0.00230913,-0.00025772,0.00002650,0.0
 0018007,-0.00009952,0.00004161,0.00040838,0.00038973,0.00058020,0.0006
 1207,0.00044945,0.00062404,0.00000616,-0.00031181,-0.00149898,-0.00012
 555,0.00362832,-0.00485199,0.00004042,-0.00029407,0.00032964,0.0020195
 1,-0.00190072,0.00065892,0.00025447,-0.00010337,0.00005171,0.00003197,
 0.00024944,-0.00039937,-0.00035220,-0.00041067,-0.00047818,-0.00020424
 ,-0.00029914,0.00042180,0.00023733,0.00053803,0.00059026,-0.00202718,0
 .00222064,-0.00117458,0.05933668,0.06169610,0.13336155,0.07139509,0.04
 071400,0.00096154,-0.00066533,0.00101134,0.00040405,0.06797970,0.00057
 311,0.00014553,0.00157439,0.06609424,0.12470980,0.00121586,0.00107506,
 0.00701227,0.00371686,0.08209932,0.00097083,0.00731623,-0.00042697,-0.
 00169858,-0.00067864,-0.00003341,-0.00120164,-0.00617511,-0.00076841,-
 0.00109965,0.00021888,0.00018348,0.00018650,-0.00023344,0.00068119,0.0
 0005135,-0.00264991,-0.00013549,-0.00029940,0.00008103,-0.00011422,0.0
 0042151,0.00253986,-0.00038440,-0.00099600,-0.02183365,0.03854966,-0.0
 2241082,-0.00040902,0.00041117,0.00025146,-0.00014777,-0.00013099,-0.0
 0001748,0.02183639,0.04119014,-0.02170596,0.02632856,-0.00005638,0.000
 30703,-0.00071068,0.00055904,0.00026498,-0.00020558,-0.03946342,0.0229
 5158,-0.02197965,0.02534534,-0.00169873,0.00013116,0.00000566,0.001500
 11,-0.00026194,-0.00017070,0.00047454,0.02165730,-0.02510108,-0.000556
 20,-0.04493843,-0.10004156,-0.04591221,0.00136354,-0.00078321,-0.00089
 851,-0.00084656,0.00000088,0.00040074,0.00016337,-0.00220513,0.0002665
 4,0.04408119,-0.10254532,-0.11036389,-0.06584548,-0.00117692,-0.000322
 15,-0.00199827,-0.00092254,0.00051544,0.00068706,0.00142731,-0.0023471
 3,0.00067100,0.10264194,0.11186299,-0.04606512,-0.06406315,-0.00430922
 ,-0.00195823,-0.00293280,-0.00358367,-0.00008250,0.00024554,0.00062630
 ,0.00052756,-0.00113314,0.00050680,0.04680861,0.06694098,0.00653643,0.
 00001504,0.00016196,-0.00074676,-0.05408915,0.02469944,0.03364628,0.00
 017273,-0.00000613,0.00000335,0.00042382,-0.00041302,0.00005232,0.0002
 3496,0.00061992,0.00067907,0.05476059,0.00062839,-0.00011553,-0.000101
 21,0.02206121,0.01052888,-0.00795596,-0.00006831,-0.00001909,0.0000619
 7,-0.00036455,0.00002689,-0.00020844,-0.00013588,0.00008034,0.00051453
 ,-0.02263609,-0.00993746,-0.00005557,0.00011929,0.00149988,0.03258207,
 -0.00802051,-0.00169761,0.00029184,-0.00002415,-0.00018189,-0.00020937
 ,-0.00004759,-0.00023257,-0.00083563,-0.00010410,0.00018867,-0.0322147
 9,0.00784572,-0.00055933,0.00082317,-0.00145500,-0.00137050,-0.0146315
 5,-0.08702311,-0.03769986,0.00024891,0.00005747,-0.00027581,-0.0000840
 4,0.00045696,0.00028798,-0.00000024,0.00005550,-0.00011325,-0.00152075
 ,0.00056440,0.00047540,0.01455758,-0.00106103,0.00021865,-0.00171343,-
 0.08452553,-0.14065727,-0.07086159,0.00041081,0.00010123,-0.00011652,-
 0.00029852,0.00039949,-0.00079080,0.00026936,0.00016626,0.00010782,-0.
 00306476,-0.00067325,0.00054273,0.08752397,0.14138731,-0.00171902,-0.0
 0308066,-0.00358516,-0.03604505,-0.07018547,-0.00432138,0.00019180,0.0
 0032709,0.00010543,0.00014765,0.00083894,0.00018800,0.00014753,-0.0000
 5173,-0.00007147,-0.00124635,-0.00004637,0.00050798,0.03826734,0.07216
 038,0.00654783,-0.00005372,0.00050448,0.00033973,0.00113046,-0.0039382
 4,0.00096955,0.00010995,-0.00001759,-0.00008181,0.00005093,-0.00006819
 ,-0.00015372,-0.00005783,-0.00009988,0.00020385,0.00000274,-0.00004916
 ,-0.00003394,0.00060688,0.00074570,0.00025612,-0.00178895,0.00028703,-
 0.00044070,-0.00117570,-0.00359144,0.00510169,-0.00141444,-0.00019990,
 -0.00000112,0.00020714,-0.00013067,0.00010314,0.00024903,0.00025361,0.
 00040813,0.00032020,0.00063869,0.00010920,-0.00031140,-0.00018019,-0.0
 0094245,0.00003782,0.00292279,-0.00433752,-0.00014168,0.00002561,0.000
 41882,0.00108811,-0.00242638,-0.00030205,0.00022115,0.00002115,-0.0001
 5081,0.00005370,0.00003057,-0.00018195,0.00002293,-0.00029947,0.000106
 16,-0.00017312,-0.00011026,0.00047486,0.00042870,0.00067141,0.00062872
 ,-0.00149968,0.00208751,-0.00099391,-0.04322684,0.00098018,0.04435379,
 -0.00652402,0.00037534,0.17826186,0.03599976,0.00066410,0.00296739,0.0
 2539580,-0.00009571,0.03629070,0.00524445,0.03606667,-0.02429556,0.003
 31538,0.00502864,-0.23253742,0.00329983,-0.00565004,0.17827289,0.00942
 482,-0.00033593,-0.00916282,0.00057909,-0.00052242,-0.00006297,-0.0113
 0574,-0.00065703,0.00055451,-0.00001333,-0.00015948,-0.00066778,0.0006
 8019,0.00044702,-0.00016357,-0.00466377,-0.00036658,0.00680009,-0.0015
 1276,0.00104098,-0.00084497,0.00647550,-0.00003516,-0.00533381,0.00133
 754,0.02217879,0.00736407,-0.00077133,0.00040653,0.00028019,0.00056579
 ,-0.00019817,-0.00007953,-0.00204861,0.02119065,-0.03966765,-0.0093024
 2,0.00000275,-0.00106504,-0.00050600,-0.00014328,0.00000404,-0.0000121
 4,-0.02108261,0.03636131,0.00427631,-0.00617284,0.02948019,0.00073757,
 -0.00041465,-0.00217786,0.00118516,-0.00000247,-0.00075126,-0.00670223
 ,0.00829685,-0.02588321,-0.00235962,-0.02317794,0.00431484,-0.00104799
 ,0.00070662,0.00079994,0.00053559,0.00026796,-0.00008761,0.00000226,0.
 00056851,0.00010728,0.00226922,-0.02204070,-0.04043415,0.00202715,-0.0
 0018573,0.00069916,0.00151459,0.00006507,-0.00004526,0.00007760,-0.000
 58042,0.00277847,-0.00026120,0.02216450,0.03740821,0.00119611,-0.00055
 547,0.02315970,0.00118355,0.00228221,-0.00213973,0.00115468,0.00008628
 ,-0.00072876,0.00015965,0.00028731,-0.00149763,-0.00345528,-0.00169244
 ,-0.01865914,-0.00116968,-0.00019975,-0.00057776,-0.04875964,-0.004436
 27,-0.01164082,-0.00049186,0.00004522,0.00044537,0.00124685,-0.0015404
 5,0.00052298,0.00120421,0.00149324,0.00059712,0.04551379,0.00020301,-0
 .00066530,0.00001759,-0.00344561,0.01041458,0.00232035,0.00009350,0.00
 005069,-0.00004155,-0.00022380,0.00034498,-0.00058035,-0.00005980,0.00
 014794,0.00027601,0.00324510,-0.01117636,-0.00070595,0.00046780,-0.002
 17811,-0.00744061,0.00099666,0.02948171,0.00004695,-0.00000630,0.00039
 651,-0.00075486,0.00020193,0.00033261,-0.00075997,-0.00050197,0.000101
 58,0.01043946,-0.00218760,-0.02588684,0.00012604,0.00041347,0.00098303
 ,-0.01419203,-0.02807331,-0.00015415,0.00038716,0.00015803,-0.00010854
 ,-0.00021440,0.00076762,-0.00010069,-0.00039012,-0.00076632,-0.0005075
 4,0.00219752,0.00054156,-0.00028201,0.01214549,0.00130606,-0.00047448,
 0.00139876,-0.02921693,-0.02857260,0.00477676,0.00061184,0.00002303,-0
 .00040634,-0.00078510,0.00156667,-0.00090468,-0.00077420,-0.00117810,-
 0.00094232,0.00169419,0.00057338,-0.00002375,0.02719963,0.02752237,0.0
 0149232,0.00209186,-0.00214124,-0.00103429,0.00082409,0.02314818,0.000
 37911,-0.00017462,-0.00049814,-0.00002737,0.00065734,0.00010089,-0.000
 60775,-0.00088113,0.00026210,0.00018589,0.00027320,-0.00149653,0.00006
 141,-0.00385801,-0.01864883,-0.00013204,-0.00052293,0.00063526,0.00279
 633,-0.00405212,0.00416259,0.00030503,0.00009626,-0.00046865,-0.000118
 10,0.00023680,-0.00002638,-0.00021355,-0.00014965,-0.00032829,0.000258
 78,-0.00035396,-0.00054301,-0.00005970,-0.00003551,-0.00044932,-0.0028
 3621,-0.00088645,0.00004258,0.00025246,-0.00372577,0.00719654,-0.00816
 449,-0.00021598,0.00024402,-0.00025680,0.00028476,-0.00032278,0.000039
 34,0.00030433,0.00062374,0.00025842,-0.00030128,0.00031008,0.00105323,
 -0.00024070,0.00053970,0.00106725,0.00478098,-0.00863344,0.00161362,-0
 .00086874,-0.00084506,0.00179931,-0.00432371,0.00679721,-0.00001559,-0
 .00053457,0.00095985,-0.00023992,0.00037713,0.00039627,-0.00031146,-0.
 00028261,-0.00049813,0.00002774,-0.00007766,-0.00075092,0.00010850,-0.
 00004044,-0.00072645,-0.00298211,0.00575075,-0.00533288\\@
 The archive entry for this job was punched.


 BOOKS ARE LIGHTHOUSES ERECTED IN THE GREAT SEA OF TIME.
     -- E.P.WHIPPLE
 Job cpu time:       0 days 12 hours 59 minutes 12.6 seconds.
 Elapsed time:       0 days  3 hours 14 minutes 55.4 seconds.
 File lengths (MBytes):  RWF=     87 Int=      0 D2E=      0 Chk=     44 Scr=      1
 Normal termination of Gaussian 16 at Tue Sep 15 17:11:22 2020.
