
 Primary working directories    : /jobfs/7633244.gadi-pbs/molpro.USRrElQiEj
 Secondary working directories  : /jobfs/7633244.gadi-pbs/molpro.USRrElQiEj
 Wavefunction directory         : /home/561/pk8622/wfu/
 Main file repository           : /jobfs/7633244.gadi-pbs/molpro.USRrElQiEj/

 id        : anu

 Nodes                            nprocs
 gadi-cpu-clx-1999.gadi.nci.org.au    4

 Using customized tuning parameters: mindgm=1; mindgv=20; mindgc=4; mindgr=1; noblas=0; minvec=7
 default implementation of scratch files=df  


 Variables initialized (934), CPU time= 0.10 sec
 ***,Geom opt + VPT2 for 1,2-difluoroethane
 
 memory,40,m
 basis=def2-TZVP
 
 orient,mass
 geomtyp=xyz
 geometry={
 8
 C         -0.61487        1.08139       -0.01148
 C          0.89653        1.04038       -0.05036
 H         -0.97661        1.49777        0.93220
 F         -1.10472       -0.18417       -0.12125
 H         -1.01366        1.66195       -0.84739
 F          1.36506        0.51827        1.11648
 H          1.31422        2.04539       -0.15201
 H          1.25568        0.40777       -0.86617
 }
 mass,iso
 
 ks,M06
 optg
 
 frequencies,symm=auto
 
 label1
 {ks,M06
 start,atden}
 
 surf,start1D=label1,type=qff,sym=auto
 poly,type=qff
 vpt2,combi=1
 Commands  initialized (763), CPU time= 0.02 sec, 617 directives.
 Default parameters read. Elapsed time= 0.08 sec

 Checking input...
 Passed
1


                                         ***  PROGRAM SYSTEM MOLPRO  ***
                                       Copyright, TTI GmbH Stuttgart, 2015
                                    Version 2019.2 linked Nov 21 2019 12:21:21


 **********************************************************************************************************************************
 LABEL *   Geom opt + VPT2 for 1,2-difluoroethane                                        
  64 bit mppx version                                                                    DATE: 23-Jun-20          TIME: 17:50:16  
 **********************************************************************************************************************************

 SHA1:             8dbd9ae1082e4ce945b0f27595c9eb2d4aa09004
 **********************************************************************************************************************************

 Variable memory set to   40000000 words,  buffer space 

 SETTING BASIS          =    DEF2-TZVP
 SETTING GEOMTYP        =    XYZ
 ZCENTRE=MASS
 


 Using masses of most abundant isotopes

 **********************************************************************************************************************************


 Recomputing integrals since basis changed


 Using spherical harmonics

 Library entry C      S def2-TZVP            selected for orbital group  1
 Library entry C      P def2-TZVP            selected for orbital group  1
 Library entry C      D def2-TZVP            selected for orbital group  1
 Library entry C      F def2-TZVP            selected for orbital group  1
 Library entry H      S def2-TZVP            selected for orbital group  2
 Library entry H      P def2-TZVP            selected for orbital group  2
 Library entry F      S def2-TZVP            selected for orbital group  3
 Library entry F      P def2-TZVP            selected for orbital group  3
 Library entry F      D def2-TZVP            selected for orbital group  3
 Library entry F      F def2-TZVP            selected for orbital group  3


 PROGRAM * SEWARD (Integral evaluation for generally contracted gaussian basis sets)     Author: Roland Lindh, 1990

 Geometry written to block  1 of record 700

 Orientation using atomic masses  
 Molecule type: Asymmetric top
 Rotational constants:       5.1205575      4.5050677     17.7041549 GHz

 Point group  C1  



 ATOMIC COORDINATES

 NR  ATOM    CHARGE       X              Y              Z

   1  C       6.00    1.083409346    0.636594642   -1.279436305
   2  C       6.00    1.083407118   -0.636595701    1.279446424
   3  H       1.00    0.846025713    2.680652435   -1.100432326
   4  F       9.00   -0.878998257   -0.260608222   -2.680674476
   5  H       1.00    2.823956583    0.225463867   -2.313011789
   6  F       9.00   -0.879003846    0.260606820    2.680667633
   7  H       1.00    2.823963243   -0.225448276    2.313024247
   8  H       1.00    0.846048604   -2.680628988    1.100428380

 Bond lengths in Bohr (Angstrom)

 1-2  2.858127792  1-3  2.065566672  1-4  2.572835982  1-5  2.065626171  2-6  2.572829188
     ( 1.512456093)     ( 1.093050811)     ( 1.361486169)     ( 1.093082296)     ( 1.361482574)

 2-7  2.065638145  2-8  2.065540753
     ( 1.093088633)     ( 1.093037095)

 Bond angles

  1-2-6  109.40592376   1-2-7  111.05799826   1-2-8  111.29870098   2-1-3  111.29910957

  2-1-4  109.40615316   2-1-5  111.05836505   3-1-4  107.73594465   3-1-5  109.70408124

  4-1-5  107.50456489   6-2-7  107.50476501   6-2-8  107.73670387   7-2-8  109.70418129

 NUCLEAR CHARGE:                   34
 NUMBER OF PRIMITIVE AOS:         236
 NUMBER OF SYMMETRY AOS:          216
 NUMBER OF CONTRACTIONS:          148   (  148A   )
 NUMBER OF CORE ORBITALS:           4   (    4A   )
 NUMBER OF VALENCE ORBITALS:       20   (   20A   )


 NUCLEAR REPULSION ENERGY  129.06190556


 Eigenvalues of metric

         1 0.600E-03 0.810E-03 0.234E-02 0.369E-02 0.444E-02 0.534E-02 0.652E-02 0.675E-02


 Contracted 2-electron integrals neglected if value below      1.0D-11
 AO integral compression algorithm  1   Integral accuracy      1.0D-11

     234.095 MB (compressed) written to integral file ( 42.1%)


 NUMBER OF SORTED TWO-ELECTRON INTEGRALS:   60791851.     BUFFER LENGTH:  32768
 NUMBER OF SEGMENTS:   4  SEGMENT LENGTH:   15999503      RECORD LENGTH: 524288

 Memory used in sort:      16.56 MW

 SORT1 READ    69482594. AND WROTE    53027854. INTEGRALS IN    153 RECORDS. CPU TIME:     1.68 SEC, REAL TIME:     2.01 SEC
 SORT2 READ    53027854. AND WROTE    60791851. INTEGRALS IN    893 RECORDS. CPU TIME:     1.01 SEC, REAL TIME:     1.30 SEC

 FILE SIZES:   FILE 1:   265.0 MBYTE,  FILE 4:   641.8 MBYTE,   TOTAL:    906.8 MBYTE

 OPERATOR DM      FOR CENTER  0  COORDINATES:    0.000000    0.000000    0.000000


 **********************************************************************************************************************************
 DATASETS  * FILE   NREC   LENGTH (MB)   RECORD NAMES
              1      19      235.06       500      610      700      900      950      970     1000      129      960     1100   
                                          VAR    BASINP    GEOM    SYMINP    ZMAT    AOBASIS   BASIS     P2S    ABASIS      S 
                                         1400     1410     1200     1210     1080     1600     1650     1300     1700   
                                           T        V       H0       H01     AOSYM     SMH    MOLCAS    ERIS     OPER   

 PROGRAMS   *        TOTAL       INT
 CPU TIMES  *        23.00     22.34
 REAL TIME  *        24.00 SEC
 DISK USED  *       907.19 MB
 **********************************************************************************************************************************

 Density functional group M06=XC-M06
 Functional: XC-M06(via MFM 1.6)                                               Gradient terms: 1
 Use libxcgrid:  F
 Use grid at  1800.2
 

 Exact exchange will be calculated, factor:  0.2700

 Functional: XC-M06                    Factor:  1.0000
 
 Generated new metagrid on record  1800.2 with target accuracy 1.0D-06 and 34072 points in CPU time    0.5
 Computed new grid on record 1800.1 in CPU time    0.6
  121776 words reserved for DFT integration

 PROGRAM * RKS-SCF (Restricted closed shell Kohn-Sham)     Authors: W. Meyer, H.-J. Werner, P.J. Knowles, 1993

 NUMBER OF ELECTRONS:      17+   17-    SPACE SYMMETRY=1    SPIN SYMMETRY: Singlet 
 CONVERGENCE THRESHOLDS:    1.00E-06 (Density)    1.00E-06 (Energy)
 MAX. NUMBER OF ITERATIONS:       60
 INTERPOLATION TYPE:            DIIS
 INTERPOLATION STEPS:              2 (START)      1 (STEP)
 LEVEL SHIFTS:                  0.00 (CLOSED)  0.00 (OPEN) 



 Use fine grid record 1800.2 for energy threshold  1.0D-06
 Orbital guess generated from atomic densities. Full valence occupancy:   17

 Molecular orbital dump at record        2100.2

 Initial occupancy:  17

 ITERATION    DDIFF          GRAD             ENERGY        2-EL.EN.            DIPOLE MOMENTS         DIIS   ORB.
    1      0.000D+00      0.000D+00      -278.23105840    521.875787    1.39585    0.00001    0.00001    0    start
    2      0.000D+00      0.532D-02      -278.22440239    507.590947    0.48629   -0.00001    0.00000    1    diag
    3      0.743D-02      0.632D-02      -278.27837271    515.235821    1.01374   -0.00000    0.00001    2    diag
    4      0.392D-02      0.758D-03      -278.27911210    515.202399    0.96287   -0.00000    0.00001    3    diag
    5      0.389D-03      0.312D-03      -278.27926596    515.079609    0.97010   -0.00000    0.00001    4    diag
    6      0.141D-03      0.539D-04      -278.27927119    515.129379    0.97384   -0.00000    0.00001    5    diag
    7      0.426D-04      0.547D-05      -278.27927124    515.127479    0.97268   -0.00000    0.00001    6    diag
    8      0.577D-05      0.153D-05      -278.27927125    515.128208    0.97299   -0.00000    0.00001    7    diag
    9      0.129D-05      0.202D-06      -278.27927125    515.128289    0.97297   -0.00000    0.00001    8    diag
   10      0.281D-06      0.210D-07      -278.27927125    515.128291    0.97297   -0.00000    0.00001    0    orth

 Final occupancy:  17

 !RKS STATE  1.1 Energy              -278.279271245424
 Nuclear energy                       129.06190556
 One-electron energy                 -640.31695222
 Two-electron energy                  257.56414565
 SCF exchange energy                  -31.95490065     Factor= 0.2700
 Density functional                   -24.58837024     XC-M06=-24.58837024
 Virial quotient                       -1.00325651
 !RKS STATE  1.1 Dipole moment          0.97296595    -0.00000245     0.00000694
 Dipole moment /Debye                   2.47287079    -0.00000623     0.00001763

 Orbital energies:

         1.1          2.1          3.1          4.1          5.1          6.1          7.1          8.1          9.1         10.1
    -24.765519   -24.765516   -10.324472   -10.324202    -1.251390    -1.240625    -0.785513    -0.662361    -0.547791    -0.547014

        11.1         12.1         13.1         14.1         15.1         16.1         17.1         18.1         19.1
     -0.526426    -0.493141    -0.488008    -0.425037    -0.370116    -0.367961    -0.351584     0.041003     0.063624


 HOMO     17.1    -0.351584 =      -9.5671eV
 LUMO     18.1     0.041003 =       1.1157eV
 LUMO-HOMO         0.392586 =      10.6828eV


 **********************************************************************************************************************************
 DATASETS  * FILE   NREC   LENGTH (MB)   RECORD NAMES
              1      20      236.16       500      610      700      900      950      970     1000      129      960     1100   
                                          VAR    BASINP    GEOM    SYMINP    ZMAT    AOBASIS   BASIS     P2S    ABASIS      S 
                                         1400     1410     1200     1210     1080     1600     1650     1300     1700     1800   
                                           T        V       H0       H01     AOSYM     SMH    MOLCAS    ERIS     OPER     GRID   

              2       5        3.33       700     1000      520     1800     2100   
                                         GEOM     BASIS   MCVARS    GRID      RKS  

 PROGRAMS   *        TOTAL    KS-SCF       INT
 CPU TIMES  *        34.93     11.93     22.34
 REAL TIME  *        36.42 SEC
 DISK USED  *       907.19 MB
 **********************************************************************************************************************************


 PROGRAM * OPT (Geometry optimization)     Authors: F. Eckert and H.-J. Werner


 BFGS update of hessian

 *** Long output written to logfile /scratch/on41/pk8622/Test_Calcs/Molpro/VPT2/1,2-difluoroethane_vpt2.log ***


 Geometry optimization using default procedure for command KS-SCF

 Geometry written to block  1 of record 700

 Making model hessian for cartesian coordinates

 Entering Rational Function Geometry Optimization

 ITER.   ENERGY(OLD)    ENERGY(NEW)      DE          GRADMAX     GRADNORM    GRADRMS     STEPMAX     STEPLEN     STEPRMS   CPU-time
   1  -278.27927125  -278.28004311    -0.00077187  0.01202825  0.02101906  0.00116773  0.09276980  0.15270122  0.05398804    134.09
   2  -278.28004311  -278.27995704     0.00008608  0.00401478  0.00700336  0.00038908  0.09534797  0.11395389  0.04028878    266.75
   3  -278.27995704  -278.28002882    -0.00007178  0.00262227  0.00411950  0.00022886  0.02448241  0.03543198  0.01252710    399.11
   4  -278.28002882  -278.28001877     0.00001005  0.00084898  0.00186913  0.00010384  0.05388755  0.06523659  0.02306462    532.82
   5  -278.28001877  -278.28004638    -0.00002761  0.00151034  0.00190829  0.00010602  0.02009444  0.02334665  0.00825429    665.49
   6  -278.28004638  -278.27914333     0.00090305  0.00115403  0.00175187  0.00009733  0.27068467  0.30000000  0.10606602    799.59
   7  -278.27914333  -278.28003009    -0.00088677  0.00648071  0.01075383  0.00059743  0.22302732  0.25421039  0.08987694    934.08
 Freezing grid
   8  -278.28003009  -278.28003410    -0.00000400  0.00073256  0.00140588  0.00007810  0.00338018  0.00459780  0.00162557   1067.91
   9  -278.28003410  -278.28002215     0.00001195  0.00065558  0.00100550  0.00005586  0.00932182  0.01301939  0.00460305   1199.28
  10  -278.28002215  -278.28001373     0.00000842  0.00069167  0.00097085  0.00005394  0.00919570  0.00999262  0.00353293   1332.52
  11  -278.28001373  -278.28000396     0.00000977  0.00073826  0.00087552  0.00004864  0.01373834  0.01471882  0.00520389   1463.62
  12  -278.28000396  -278.28000251     0.00000145  0.00015986  0.00023095  0.00001283  0.00280330  0.00289879  0.00102488   1596.51
  13  -278.28000251  -278.28000263    -0.00000012  0.00005986  0.00008574  0.00000476  0.00057797  0.00079653  0.00028162   1728.39

 END OF GEOMETRY OPTIMIZATION.

 Current geometry (xyz format, in Angstrom)

    8
 KS-SCF000/DEF2-TZVP  ENERGY=-278.28000263
 C          0.5991415746        0.3011150316       -0.6859437795
 C          0.5991415137       -0.3011150538        0.6859437565
 H          0.5672637269        1.3953349434       -0.6237556664
 F         -0.4885800402       -0.1267831020       -1.3954963636
 H          1.5090293030        0.0045222996       -1.2209535243
 F         -0.4885799886        0.1267831211        1.3954963995
 H          1.5090293733       -0.0045223726        1.2209533419
 H          0.5672636442       -1.3953349653        0.6237554458

 **********************************************************************************************************************************

 Geometry written to block  1 of record 700


 **********************************************************************************************************************************
 DATASETS  * FILE   NREC   LENGTH (MB)   RECORD NAMES
              1      20      264.85       500      610      700      900      950      970     1000      129      960     1100   
                                          VAR    BASINP    GEOM    SYMINP    ZMAT    AOBASIS   BASIS     P2S    ABASIS      S 
                                         1400     1410     1200     1210     1080     1600     1650     1300     1700     1800   
                                           T        V       H0       H01     AOSYM     SMH    MOLCAS    ERIS     OPER     GRID   

              2       5        3.33       700     1000      520     1800     2100   
                                         GEOM     BASIS   MCVARS    GRID      RKS  

 PROGRAMS   *        TOTAL      OPTG    KS-SCF       INT
 CPU TIMES  *      1763.37   1728.39     11.93     22.34
 REAL TIME  *      1789.87 SEC
 DISK USED  *       954.73 MB
 **********************************************************************************************************************************


 PROGRAM * HESSIAN

 Computing numerical hessian using default procedure for command KS-SCF

 Symmetry elements for unique displacements: YZ 

 Using AUTO symmetry option

 Running default procedure: KS-SCF000
 

 Recomputing wavefunction at reference geometry

 Numerically approximating hessian using central gradient differences

 Task list generated. Total number of displacements:     24

   20 tasks completed, CPU=11m 23s Elapsed=11m 26s
 Tasks on processor    0 finished.  CPU=    818.68 sec, Elapsed=    822.86 sec. All tasks on all processors finished.

 KS-SCF hessian saved to record  5300.2

 PROGRAM * FREQUENCIES (Calculation of harmonic vibrational spectra for KS-SCF)


 Permanent Dipole Moment [debye]
   1-  3    2.620503    0.000000   -0.000000

 Dipole Moment Norm    2.6205029 [debye]

 Dipole Moment Derivatives [debye/ang]
                   1             2             3             4             5             6             7             8
         1     3.6783015     0.4407128     1.7136705     3.6783015    -0.4407128    -1.7136705     0.1412715    -0.1324187
         2     0.6591266     1.9700121     0.4985734    -0.6591266     1.9700121     0.4985734     0.1974117    -0.5915416
         3     1.3348968     0.8477527     2.5821749    -1.3348968     0.8477527     2.5821749    -0.1837659    -0.0425658
                   9            10            11            12            13            14            15            16
         1    -0.1020920    -3.3499820    -0.8240454    -1.4744476    -0.4683075     0.3524939     0.2560057    -3.3499820
         2    -0.0512104    -0.6626608    -1.5512875    -0.3331424     0.0790037     0.1726855    -0.1159154     0.6626608
         3     0.0776789    -1.7069257    -0.5230373    -2.6021837     0.1335918    -0.2823111    -0.0601597     1.7069257
                  17            18            19            20            21            22            23            24
         1     0.8240454     1.4744476    -0.4683075    -0.3524939    -0.2560057     0.1412715     0.1324187     0.1020920
         2    -1.5512875    -0.3331424    -0.0790037     0.1726855    -0.1159154    -0.1974117    -0.5915416    -0.0512104
         3    -0.5230373    -2.6021837    -0.1335918    -0.2823111    -0.0601597     0.1837659    -0.0425658     0.0776789

 Projecting out rotations and translations

   Low Vibration      Wavenumber
        Nr             [1/cm] 
        1                0.00
        2                0.00
        3                0.00
        4                0.00
        5                0.00
        6                0.00

     Vibration        Wavenumber
        Nr             [1/cm] 
        1              162.30
        2              366.91
        3              530.43
        4              912.73
        5              949.73
        6             1127.09
        7             1143.10
        8             1168.67
        9             1285.45
       10             1303.89
       11             1414.83
       12             1461.29
       13             1511.68
       14             1517.81
       15             3023.70
       16             3029.91
       17             3073.71
       18             3087.99

 FREQUENCIES * CALCULATION OF NORMAL MODES FOR KS-SCF


 Atomic Coordinates

  Nr  Atom  Charge       X              Y              Z

   1   C     6.00    1.132213428    0.569024963   -1.296245858
   2   C     6.00    1.132213428   -0.569024963    1.296245858
   3   H     1.00    1.071973006    2.636800916   -1.178727170
   4   F     9.00   -0.923282417   -0.239585358   -2.637105969
   5   H     1.00    2.851652163    0.008545977   -2.307267599
   6   F     9.00   -0.923282417    0.239585358    2.637105969
   7   H     1.00    2.851652163   -0.008545977    2.307267599
   8   H     1.00    1.071973006   -2.636800916    1.178727170

 Gradient norm at reference geometry: 0.24946D-02

 ?WARNING: GRADIENT NORM NOT ZERO!

 Normal Modes

                              1 A         2 A         3 B         4 A         5 B  
 Wavenumbers [cm-1]          162.30      366.91      530.43      912.73      949.73
 Intensities [km/mol]          2.83        0.44       16.80       23.81       42.92
 Intensities [relative]        3.91        0.60       23.18       32.85       59.22
           CX1              0.06710    -0.01773     0.07877    -0.08627    -0.02702
           CY1             -0.03023     0.08791     0.05874    -0.05932     0.05439
           CZ1             -0.01411     0.05289    -0.08522     0.09863     0.09368
           CX2              0.06710    -0.01773    -0.07877    -0.08627     0.02702
           CY2              0.03023    -0.08791     0.05874     0.05932     0.05439
           CZ2              0.01411    -0.05289    -0.08522    -0.09863     0.09368
           HX3              0.15916    -0.20948     0.20880     0.09710     0.17229
           HY3             -0.02525     0.07526     0.07057    -0.04809     0.06996
           HZ3             -0.06852     0.20613    -0.30021     0.00999    -0.29418
           FX4             -0.05021     0.02165     0.02471     0.04829    -0.04409
           FY4              0.03343    -0.05309    -0.03234     0.01802    -0.02400
           FZ4              0.12668     0.08290     0.07135     0.03691    -0.05521
           HX5             -0.01152     0.01248     0.04679     0.01984    -0.05589
           HY5             -0.13711     0.28871    -0.16036    -0.19687    -0.26514
           HZ5             -0.09241     0.00257    -0.03010     0.35076     0.21954
           FX6             -0.05021     0.02165    -0.02471     0.04829     0.04409
           FY6             -0.03343     0.05309    -0.03234    -0.01802    -0.02400
           FZ6             -0.12668    -0.08290     0.07135    -0.03691    -0.05521
           HX7             -0.01152     0.01248    -0.04679     0.01984     0.05589
           HY7              0.13711    -0.28871    -0.16036     0.19687    -0.26514
           HZ7              0.09241    -0.00257    -0.03010    -0.35076     0.21954
           HX8              0.15916    -0.20948    -0.20880     0.09710    -0.17229
           HY8              0.02525    -0.07526     0.07057     0.04809     0.06996
           HZ8              0.06852    -0.20613    -0.30021    -0.00999    -0.29418

                              6 B         7 A         8 A         9 B        10 A  
 Wavenumbers [cm-1]         1127.09     1143.10     1168.67     1285.45     1303.89
 Intensities [km/mol]         50.31       52.54       72.48       10.74        0.11
 Intensities [relative]       69.41       72.49      100.00       14.82        0.15
           CX1              0.14614    -0.08218     0.05548    -0.01796     0.01346
           CY1              0.02323     0.09664     0.09748    -0.04679     0.02436
           CZ1              0.02221    -0.07104     0.08334    -0.03143    -0.05712
           CX2             -0.14614    -0.08218     0.05548     0.01796     0.01346
           CY2              0.02323    -0.09664    -0.09748    -0.04679    -0.02436
           CZ2              0.02221     0.07104    -0.08334    -0.03143     0.05712
           HX3             -0.04870     0.17398     0.31987    -0.28261    -0.11471
           HY3              0.00878     0.11872     0.10046    -0.05097     0.03212
           HZ3              0.15556    -0.28064    -0.01334    -0.31233    -0.31644
           FX4             -0.07577     0.05127    -0.05276    -0.00369    -0.02058
           FY4             -0.02385     0.00131    -0.03872     0.02665     0.00949
           FZ4             -0.02585     0.02521    -0.03276     0.01500     0.01083
           HX5              0.19980    -0.16199     0.01412     0.28698     0.34245
           HY5              0.16410    -0.15638    -0.16344     0.10574     0.16526
           HZ5              0.06715    -0.09502     0.15219     0.40373     0.42101
           FX6              0.07577     0.05127    -0.05276     0.00369    -0.02058
           FY6             -0.02385    -0.00131     0.03872     0.02665    -0.00949
           FZ6             -0.02585    -0.02521     0.03276     0.01500    -0.01083
           HX7             -0.19980    -0.16199     0.01412    -0.28698     0.34245
           HY7              0.16410     0.15638     0.16344     0.10574    -0.16526
           HZ7              0.06715     0.09502    -0.15219     0.40373    -0.42101
           HX8              0.04870     0.17398     0.31987     0.28261    -0.11471
           HY8              0.00878    -0.11872    -0.10046    -0.05097    -0.03212
           HZ8              0.15556     0.28064     0.01334    -0.31233     0.31644

                             11 B        12 A        13 B        14 A        15 B  
 Wavenumbers [cm-1]         1414.83     1461.29     1511.68     1517.81     3023.70
 Intensities [km/mol]          9.38       16.70        8.47        0.95       11.16
 Intensities [relative]       12.94       23.04       11.69        1.31       15.40
           CX1             -0.05753    -0.02524    -0.02154    -0.03848    -0.03672
           CY1              0.02334     0.00817    -0.03716    -0.04327    -0.01803
           CZ1             -0.06399    -0.10764     0.03002     0.01766     0.02257
           CX2              0.05753    -0.02524     0.02154    -0.03848     0.03672
           CY2              0.02334    -0.00817    -0.03716     0.04327    -0.01803
           CZ2             -0.06399     0.10764     0.03002    -0.01766     0.02257
           HX3              0.33468     0.23176     0.39834     0.44969    -0.01723
           HY3              0.01700    -0.00569    -0.00350    -0.01369     0.37530
           HZ3              0.35819     0.48934    -0.22501    -0.09497     0.02165
           FX4             -0.00782    -0.00287    -0.00378    -0.00240    -0.00187
           FY4             -0.01458    -0.01014    -0.00218    -0.00579    -0.00024
           FZ4              0.00256     0.00623    -0.00139    -0.00113    -0.00102
           HX5              0.16994     0.12288     0.07210     0.05364     0.48018
           HY5             -0.02005    -0.06482     0.48704     0.47592    -0.15610
           HZ5              0.35540     0.18561    -0.10632    -0.10448    -0.27109
           FX6              0.00782    -0.00287     0.00378    -0.00240     0.00187
           FY6             -0.01458     0.01014    -0.00218     0.00579    -0.00024
           FZ6              0.00256    -0.00623    -0.00139     0.00113    -0.00102
           HX7             -0.16994     0.12288    -0.07210     0.05364    -0.48018
           HY7             -0.02005     0.06482     0.48704    -0.47592    -0.15610
           HZ7              0.35540    -0.18561    -0.10632     0.10448    -0.27109
           HX8             -0.33468     0.23176    -0.39834     0.44969     0.01723
           HY8              0.01700     0.00569    -0.00350     0.01369     0.37530
           HZ8              0.35819    -0.48934    -0.22501     0.09497     0.02165

                             16 A        17 A        18 B  
 Wavenumbers [cm-1]         3029.91     3073.71     3087.99
 Intensities [km/mol]         33.95       14.49       40.87
 Intensities [relative]       46.85       19.99       56.38
           CX1             -0.03017     0.03497     0.02592
           CY1             -0.02992    -0.04821    -0.05496
           CZ1              0.02027    -0.02077    -0.01709
           CX2             -0.03017     0.03497    -0.02592
           CY2              0.02992     0.04821    -0.05496
           CZ2             -0.02027     0.02077    -0.01709
           HX3             -0.02060    -0.01524    -0.02113
           HY3              0.48368     0.47334     0.56251
           HZ3              0.02673     0.01590     0.01685
           FX4             -0.00124    -0.00032     0.00038
           FY4             -0.00039     0.00021     0.00012
           FZ4             -0.00070    -0.00027     0.00028
           HX5              0.40312    -0.39509    -0.30093
           HY5             -0.12905     0.11753     0.08962
           HZ5             -0.23546     0.23301     0.18147
           FX6             -0.00124    -0.00032    -0.00038
           FY6              0.00039    -0.00021     0.00012
           FZ6              0.00070     0.00027     0.00028
           HX7              0.40312    -0.39509     0.30093
           HY7              0.12905    -0.11753     0.08962
           HZ7              0.23546    -0.23301     0.18147
           HX8             -0.02060    -0.01524     0.02113
           HY8             -0.48368    -0.47334     0.56251
           HZ8             -0.02673    -0.01590     0.01685


 Normal Modes of low/zero frequencies

                                  1           2           3           4           5
 Wavenumbers [cm-1]            0.00        0.00        0.00        0.00        0.00
 Intensities [km/mol]          0.00        0.00        0.00        0.00        0.00
 Intensities [relative]        0.00        0.00        0.00        0.00        0.00
           CX1              0.00051    -0.00616     0.00307     0.00084    -0.00204
           CY1             -0.11415    -0.03617    -0.07059     0.06054     0.08730
           CZ1             -0.06673     0.11189     0.03319     0.00883     0.01760
           CX2              0.01825    -0.02231    -0.07768    -0.06471     0.09129
           CY2             -0.10547    -0.09225     0.02613    -0.02289     0.09726
           CZ2             -0.06292     0.08728     0.07565    -0.02779     0.02197
           HX3              0.12903     0.02042     0.09436     0.09497    -0.03636
           HY3             -0.11013    -0.03793    -0.06350     0.05952     0.08666
           HZ3             -0.07164     0.15659    -0.04464     0.07507     0.01134
           FX4             -0.09285    -0.01581    -0.01777    -0.02927    -0.02490
           FY4              0.00522     0.01933    -0.02852     0.19787     0.04477
           FZ4              0.00441     0.09322     0.03976    -0.02782     0.07829
           HX5             -0.06692    -0.01280    -0.01044    -0.01961    -0.02017
           HY5             -0.22114    -0.03646    -0.18534     0.01431     0.11469
           HZ5             -0.12209     0.10076     0.07384    -0.00031    -0.02842
           FX6              0.11161    -0.01266    -0.05685    -0.03460     0.11415
           FY6              0.02287    -0.09476     0.16824     0.02813     0.06503
           FZ6              0.00281     0.10359     0.02189    -0.01240     0.07645
           HX7              0.08568    -0.01567    -0.06418    -0.04426     0.10942
           HY7             -0.20570    -0.13628    -0.01319    -0.13420     0.13242
           HZ7             -0.12204     0.10039     0.07448    -0.00086    -0.02835
           HX8             -0.11026    -0.04889    -0.16897    -0.15883     0.12560
           HY8             -0.10224    -0.08893     0.02444    -0.01635     0.09572
           HZ8             -0.05399     0.04251     0.15210    -0.09465     0.03160

                                  6
 Wavenumbers [cm-1]            0.00
 Intensities [km/mol]          0.00
 Intensities [relative]        0.00
           CX1              0.14951
           CY1             -0.03951
           CZ1              0.02889
           CX2              0.05496
           CY2             -0.04323
           CZ2              0.02726
           HX3              0.21911
           HY3             -0.03758
           HZ3              0.03058
           FX4              0.14970
           FY4              0.03406
           FZ4             -0.01578
           HX5              0.15137
           HY5             -0.09801
           HZ5              0.06448
           FX6              0.05477
           FY6              0.02650
           FZ6             -0.01509
           HX7              0.05310
           HY7             -0.10462
           HZ7              0.06446
           HX8             -0.01464
           HY8             -0.04096
           HZ8              0.02302


 Frequencies dumped to record   5400.2

 Zero point energy:  0.06167275 [H]    13535.60 [1/CM]      161.92 [KJ/MOL]

 Recomputing wavefunction at initial geometry


 **********************************************************************************************************************************
 DATASETS  * FILE   NREC   LENGTH (MB)   RECORD NAMES
              1      21      263.54       500      610      700      701      900      950      970     1000      129      960   
                                          VAR    BASINP    GEOM     GEOM    SYMINP    ZMAT    AOBASIS   BASIS     P2S    ABASIS    
                                         1100     1400     1410     1200     1210     1080     1600     1650     1300     1700   
                                           S        T        V       H0       H01     AOSYM     SMH    MOLCAS    ERIS     OPER   
                                         1800   
                                         GRID   

              2      12        7.39       700     1000      520     1800     2100      701      702     1001     2101     5300   
                                         GEOM     BASIS   MCVARS    GRID      RKS     GEOM     GEOM     BASIS     RKS     HESS   
                                         5450     5400   
                                         NMOD     FREQ   

 PROGRAMS   *        TOTAL      FREQ    KS-SCF    KS-SCF    KS-SCF    KS-SCF    KS-SCF    KS-SCF    KS-SCF       INT      OPTG
 CPU TIMES  *      2627.68     28.26     31.86     32.16     34.00     32.00     34.06     32.93      9.50     14.53   1728.39
 REAL TIME  *      2667.13 SEC
 DISK USED  *       954.73 MB
 **********************************************************************************************************************************

 Density functional group M06=XC-M06
 Functional: XC-M06(via MFM 1.6)                                               Gradient terms: 1
 Use libxcgrid:  F
 Use grid at  1800.2
 

 Exact exchange will be calculated, factor:  0.2700

 Functional: XC-M06                    Factor:  1.0000
 
  121776 words reserved for DFT integration

 PROGRAM * RKS-SCF (Restricted closed shell Kohn-Sham)     Authors: W. Meyer, H.-J. Werner, P.J. Knowles, 1993

 NUMBER OF ELECTRONS:      17+   17-    SPACE SYMMETRY=1    SPIN SYMMETRY: Singlet 
 CONVERGENCE THRESHOLDS:    1.00E-07 (Density)    1.00E-06 (Energy)
 MAX. NUMBER OF ITERATIONS:       60
 INTERPOLATION TYPE:            DIIS
 INTERPOLATION STEPS:              2 (START)      1 (STEP)
 LEVEL SHIFTS:                  0.00 (CLOSED)  0.00 (OPEN) 



 Use fine grid record 1800.2 for energy threshold  1.0D-06
 Orbital guess generated from atomic densities. Full valence occupancy:   17

 Molecular orbital dump at record        2102.2

 Initial occupancy:  17

 ITERATION    DDIFF          GRAD             ENERGY        2-EL.EN.            DIPOLE MOMENTS         DIIS   ORB.
    1      0.000D+00      0.000D+00      -278.23118229    521.798874    1.49550    0.00000   -0.00000    0    start
    2      0.000D+00      0.532D-02      -278.22416389    507.429007    0.49937    0.00000    0.00000    1    diag
    3      0.749D-02      0.634D-02      -278.27907929    515.169745    1.07445    0.00000   -0.00000    2    diag
    4      0.395D-02      0.768D-03      -278.27982955    515.111029    1.02077    0.00000   -0.00000    3    diag
    5      0.396D-03      0.320D-03      -278.27999063    514.990502    1.02787    0.00000   -0.00000    4    diag
    6      0.145D-03      0.571D-04      -278.27999654    515.042377    1.03197    0.00000   -0.00000    5    diag
    7      0.446D-04      0.555D-05      -278.27999660    515.040032    1.03073    0.00000   -0.00000    6    diag
    8      0.628D-05      0.156D-05      -278.27999660    515.040838    1.03104    0.00000   -0.00000    7    diag
    9      0.136D-05      0.213D-06      -278.27999660    515.040929    1.03102    0.00000   -0.00000    8    diag
   10      0.297D-06      0.235D-07      -278.27999660    515.040927    1.03102    0.00000   -0.00000    9    orth
   11      0.221D-07      0.500D-08      -278.27999660    515.040926    1.03102    0.00000   -0.00000    0    orth

 Final occupancy:  17

 !RKS STATE  1.1 Energy              -278.279996602682
 Nuclear energy                       129.03221974
 One-electron energy                 -640.25003477
 Two-electron energy                  257.52046296
 SCF exchange energy                  -31.94537655     Factor= 0.2700
 Density functional                   -24.58264453     XC-M06=-24.58264453
 Virial quotient                       -1.00338604
 !RKS STATE  1.1 Dipole moment          1.03101802     0.00000001    -0.00000001
 Dipole moment /Debye                   2.62041479     0.00000003    -0.00000002

 Orbital energies:

         1.1          2.1          3.1          4.1          5.1          6.1          7.1          8.1          9.1         10.1
    -24.766810   -24.766809   -10.325699   -10.325406    -1.249949    -1.238640    -0.790993    -0.659788    -0.549069    -0.546769

        11.1         12.1         13.1         14.1         15.1         16.1         17.1         18.1         19.1
     -0.526098    -0.492465    -0.485394    -0.424576    -0.374771    -0.364966    -0.354326     0.037345     0.066536


 HOMO     17.1    -0.354326 =      -9.6417eV
 LUMO     18.1     0.037345 =       1.0162eV
 LUMO-HOMO         0.391671 =      10.6579eV


 **********************************************************************************************************************************
 DATASETS  * FILE   NREC   LENGTH (MB)   RECORD NAMES
              1      21      263.54       500      610      700      701      900      950      970     1000      129      960   
                                          VAR    BASINP    GEOM     GEOM    SYMINP    ZMAT    AOBASIS   BASIS     P2S    ABASIS    
                                         1100     1400     1410     1200     1210     1080     1600     1650     1300     1700   
                                           S        T        V       H0       H01     AOSYM     SMH    MOLCAS    ERIS     OPER   
                                         1800   
                                         GRID   

              2      13       10.32       700     1000      520     1800     2100      701      702     1001     2101     5300   
                                         GEOM     BASIS   MCVARS    GRID      RKS     GEOM     GEOM     BASIS     RKS     HESS   
                                         5450     5400     2102   
                                         NMOD     FREQ      RKS  

 PROGRAMS   *        TOTAL    KS-SCF    KS-SCF    KS-SCF    KS-SCF    KS-SCF    KS-SCF    KS-SCF    KS-SCF    KS-SCF       INT
 CPU TIMES  *      2640.41     12.68     28.26     31.86     32.16     34.00     32.00     34.06     32.93      9.50     14.53
 REAL TIME  *      2680.44 SEC
 DISK USED  *       954.73 MB
 **********************************************************************************************************************************


 PROGRAM * SURF (Surface generation)   Authors: G. Rauhut 2004, T. Hrenar 2005, M. Neff 2012, D. Oschetzki 2013

 Freezing grid

 Reference geometry in SURF calculation

   1  C     6.00     1.296245858    0.569024963    1.132213428
   2  C     6.00    -1.296245858   -0.569024963    1.132213428
   3  H     1.00     1.178727170    2.636800916    1.071973006
   4  F     9.00     2.637105969   -0.239585358   -0.923282417
   5  H     1.00     2.307267599    0.008545977    2.851652163
   6  F     9.00    -2.637105969    0.239585358   -0.923282417
   7  H     1.00    -2.307267599   -0.008545977    2.851652163
   8  H     1.00    -1.178727170   -2.636800916    1.071973006


 The phase of the following normal coordinates was changed:
  1  3  4  6  7 10 12 17

 Information about detected symmetry elements:
 C2-axis in direction (   0.0   0.0   1.0)^T

 Detected point group: C2 

 Starting mppx-calculation of energy surfaces:

 Calculating 1D potential

 1D:  18  Points:   3 Conv: 0.00067603 0.00067603  s
 1D:  17  Points:   6 Conv: 0.00067419 0.00067418
 1D:  16  Points:   6 Conv: 0.00066145 0.00066141
 1D:  15  Points:   3 Conv: 0.00066236 0.00066236  s
 1D:  14  Points:   6 Conv: 0.00025656 0.00025657
 1D:  13  Points:   3 Conv: 0.00025364 0.00025364  s
 1D:  12  Points:   6 Conv: 0.00024662 0.00024660
 1D:  11  Points:   3 Conv: 0.00023754 0.00023755  s
 1D:  10  Points:   6 Conv: 0.00021982 0.00021979
 1D:   9  Points:   3 Conv: 0.00021550 0.00021550  s
 1D:   8  Points:   6 Conv: 0.00018332 0.00018330
 1D:   7  Points:   6 Conv: 0.00018100 0.00018099
 1D:   6  Points:   3 Conv: 0.00017749 0.00017749  s
 1D:   5  Points:   3 Conv: 0.00013141 0.00013141  s
 1D:   4  Points:   6 Conv: 0.00012712 0.00012709
 1D:   3  Points:   3 Conv: 0.00006548 0.00006548  s
 1D:   2  Points:   6 Conv: 0.00005863 0.00005864
 1D:   1  Points:   6 Conv: 0.00003604 0.00003604

 The determined shift and scalnm parameters are:

 scalnm,mode= 1,sfac=1.000,shift= 0
 scalnm,mode= 2,sfac=1.000,shift= 0
 scalnm,mode= 3,sfac=1.000,shift= 0
 scalnm,mode= 4,sfac=1.000,shift= 0
 scalnm,mode= 5,sfac=1.000,shift= 0
 scalnm,mode= 6,sfac=1.000,shift= 0
 scalnm,mode= 7,sfac=1.000,shift= 0
 scalnm,mode= 8,sfac=1.000,shift= 0
 scalnm,mode= 9,sfac=1.000,shift= 0
 scalnm,mode=10,sfac=1.000,shift= 0
 scalnm,mode=11,sfac=1.000,shift= 0
 scalnm,mode=12,sfac=1.000,shift= 0
 scalnm,mode=13,sfac=1.000,shift= 0
 scalnm,mode=14,sfac=1.000,shift= 0
 scalnm,mode=15,sfac=1.000,shift= 0
 scalnm,mode=16,sfac=1.000,shift= 0
 scalnm,mode=17,sfac=1.000,shift= 0
 scalnm,mode=18,sfac=1.000,shift= 0

 Calculating 2D coupling potential

 2D:  18  17  Points:   8 Conv: 0.00001474 0.00001494
 2D:  18  16  Points:   8 Conv: 0.00003713 0.00003750
 2D:  18  15  Points:   8 Conv: 0.00000753 0.00000744
 2D:  18  14  Points:   8 Conv: 0.00000271 0.00000270
 2D:  18  13  Points:   8 Conv: 0.00000058 0.00000058
 2D:  18  12  Points:   8 Conv: 0.00000054 0.00000060
 2D:  18  11  Points:   8 Conv: 0.00001320 0.00001316
 2D:  18  10  Points:   8 Conv: 0.00000034 0.00000036
 2D:  18   9  Points:   8 Conv: 0.00001116 0.00001076
 2D:  18   8  Points:   8 Conv: 0.00000080 0.00000084
 2D:  18   7  Points:   8 Conv: 0.00000123 0.00000123
 2D:  18   6  Points:   8 Conv: 0.00000343 0.00000340
 2D:  18   5  Points:   8 Conv: 0.00000057 0.00000054
 2D:  18   4  Points:   8 Conv: 0.00000049 0.00000050
 2D:  18   3  Points:   8 Conv: 0.00000320 0.00000322
 2D:  18   2  Points:   8 Conv: 0.00000056 0.00000053
 2D:  18   1  Points:   8 Conv: 0.00000035 0.00000036
 2D:  17  16  Points:  16 Conv: 0.00003754 0.00003789
 2D:  17  15  Points:   8 Conv: 0.00001563 0.00001578
 2D:  17  14  Points:  16 Conv: 0.00000261 0.00000263
 2D:  17  13  Points:   8 Conv: 0.00000104 0.00000107
 2D:  17  12  Points:  16 Conv: 0.00001099 0.00001101
 2D:  17  11  Points:   8 Conv: 0.00000082 0.00000085
 2D:  17  10  Points:  16 Conv: 0.00001609 0.00001558
 2D:  17   9  Points:   8 Conv: 0.00000221 0.00000222
 2D:  17   8  Points:  16 Conv: 0.00000163 0.00000167
 2D:  17   7  Points:  16 Conv: 0.00000577 0.00000574
 2D:  17   6  Points:   8 Conv: 0.00000108 0.00000109
 2D:  17   5  Points:   8 Conv: 0.00000073 0.00000072
 2D:  17   4  Points:  16 Conv: 0.00000950 0.00000942
 2D:  17   3  Points:   8 Conv: 0.00000025 0.00000028
 2D:  17   2  Points:  16 Conv: 0.00000164 0.00000166
 2D:  17   1  Points:  16 Conv: 0.00000661 0.00000656
 2D:  16  15  Points:   8 Conv: 0.00003576 0.00003607
 2D:  16  14  Points:  16 Conv: 0.00000456 0.00000456
 2D:  16  13  Points:   8 Conv: 0.00000440 0.00000441
 2D:  16  12  Points:  16 Conv: 0.00000666 0.00000662
 2D:  16  11  Points:   8 Conv: 0.00000551 0.00000555
 2D:  16  10  Points:  16 Conv: 0.00001976 0.00001939
 2D:  16   9  Points:   8 Conv: 0.00000477 0.00000482
 2D:  16   8  Points:  16 Conv: 0.00000250 0.00000248
 2D:  16   7  Points:  16 Conv: 0.00000344 0.00000341
 2D:  16   6  Points:   8 Conv: 0.00000090 0.00000090
 2D:  16   5  Points:   8 Conv: 0.00000658 0.00000656
 2D:  16   4  Points:  16 Conv: 0.00000730 0.00000724
 2D:  16   3  Points:   8 Conv: 0.00000436 0.00000436
 2D:  16   2  Points:  16 Conv: 0.00000535 0.00000534
 2D:  16   1  Points:  16 Conv: 0.00000474 0.00000473
 2D:  15  14  Points:   8 Conv: 0.00000134 0.00000132
 2D:  15  13  Points:   8 Conv: 0.00000079 0.00000109
 2D:  15  12  Points:   8 Conv: 0.00000032 0.00000037
 2D:  15  11  Points:   8 Conv: 0.00001388 0.00001360
 2D:  15  10  Points:   8 Conv: 0.00000119 0.00000110
 2D:  15   9  Points:   8 Conv: 0.00002045 0.00002013
 2D:  15   8  Points:   8 Conv: 0.00000018 0.00000022
 2D:  15   7  Points:   8 Conv: 0.00000161 0.00000162
 2D:  15   6  Points:   8 Conv: 0.00000527 0.00000530
 2D:  15   5  Points:   8 Conv: 0.00000459 0.00000450
 2D:  15   4  Points:   8 Conv: 0.00000017 0.00000024
 2D:  15   3  Points:   8 Conv: 0.00000267 0.00000260
 2D:  15   2  Points:   8 Conv: 0.00000070 0.00000069
 2D:  15   1  Points:   8 Conv: 0.00000074 0.00000075
 2D:  14  13  Points:   8 Conv: 0.00000377 0.00000361
 2D:  14  12  Points:  16 Conv: 0.00000930 0.00000882
 2D:  14  11  Points:   8 Conv: 0.00000028 0.00000026
 2D:  14   9  Points:   8 Conv: 0.00000079 0.00000074
 2D:  14   8  Points:  16 Conv: 0.00000180 0.00000231
 2D:  14   7  Points:  16 Conv: 0.00000222 0.00000162
 2D:  14   6  Points:   8 Conv: 0.00000055 0.00000053
 2D:  14   5  Points:   8 Conv: 0.00000099 0.00000085
 2D:  14   4  Points:  16 Conv: 0.00001648 0.00001669
 2D:  14   3  Points:   8 Conv: 0.00000094 0.00000087
 2D:  14   2  Points:  16 Conv: 0.00000326 0.00000405
 2D:  13  12  Points:   8 Conv: 0.00000123 0.00000115
 2D:  13  11  Points:   8 Conv: 0.00001475 0.00001460
 2D:  13  10  Points:   8 Conv: 0.00000042 0.00000044
 2D:  13   8  Points:   8 Conv: 0.00000029 0.00000024
 2D:  13   7  Points:   8 Conv: 0.00000039 0.00000037
 2D:  13   6  Points:   8 Conv: 0.00000143 0.00000178
 2D:  13   5  Points:   8 Conv: 0.00000767 0.00000873
 2D:  13   4  Points:   8 Conv: 0.00000009 0.00000006
 2D:  13   3  Points:   8 Conv: 0.00000389 0.00000311
 2D:  13   2  Points:   8 Conv: 0.00000023 0.00000022
 2D:  13   1  Points:   8 Conv: 0.00000032 0.00000028
 2D:  12  11  Points:   8 Conv: 0.00000407 0.00000360
 2D:  12  10  Points:  16 Conv: 0.00000407 0.00000429
 2D:  12   9  Points:   8 Conv: 0.00000416 0.00000384
 2D:  12   8  Points:  16 Conv: 0.00000540 0.00000564
 2D:  12   7  Points:  16 Conv: 0.00000139 0.00000127
 2D:  12   6  Points:   8 Conv: 0.00000104 0.00000105
 2D:  12   5  Points:   8 Conv: 0.00000066 0.00000064
 2D:  12   4  Points:  16 Conv: 0.00000489 0.00000490
 2D:  12   3  Points:   8 Conv: 0.00000048 0.00000047
 2D:  12   2  Points:  16 Conv: 0.00000520 0.00000541
 2D:  12   1  Points:  16 Conv: 0.00000482 0.00000501
 2D:  11  10  Points:   8 Conv: 0.00000241 0.00000218
 2D:  11   9  Points:   8 Conv: 0.00000515 0.00000684
 2D:  11   8  Points:   8 Conv: 0.00000181 0.00000172
 2D:  11   7  Points:   8 Conv: 0.00000051 0.00000052
 2D:  11   6  Points:   8 Conv: 0.00000058 0.00000062
 2D:  11   5  Points:   8 Conv: 0.00000748 0.00000705
 2D:  11   4  Points:   8 Conv: 0.00000143 0.00000131
 2D:  11   3  Points:   8 Conv: 0.00000729 0.00000707
 2D:  11   2  Points:   8 Conv: 0.00000030 0.00000025
 2D:  11   1  Points:   8 Conv: 0.00000145 0.00000139
 2D:  10   9  Points:   8 Conv: 0.00000488 0.00000437
 2D:  10   8  Points:  16 Conv: 0.00000504 0.00000477
 2D:  10   7  Points:  16 Conv: 0.00000810 0.00000793
 2D:  10   6  Points:   8 Conv: 0.00000109 0.00000111
 2D:  10   5  Points:   8 Conv: 0.00000035 0.00000033
 2D:  10   4  Points:  16 Conv: 0.00000273 0.00000263
 2D:  10   3  Points:   8 Conv: 0.00000079 0.00000079
 2D:  10   1  Points:  16 Conv: 0.00000976 0.00000988
 2D:   9   8  Points:   8 Conv: 0.00000220 0.00000216
 2D:   9   7  Points:   8 Conv: 0.00000108 0.00000104
 2D:   9   6  Points:   8 Conv: 0.00000401 0.00000390
 2D:   9   5  Points:   8 Conv: 0.00000747 0.00000723
 2D:   9   4  Points:   8 Conv: 0.00000216 0.00000201
 2D:   9   3  Points:   8 Conv: 0.00001167 0.00001148
 2D:   9   2  Points:   8 Conv: 0.00000012 0.00000014
 2D:   9   1  Points:   8 Conv: 0.00000234 0.00000220
 2D:   8   7  Points:  16 Conv: 0.00000204 0.00000209
 2D:   8   6  Points:   8 Conv: 0.00000408 0.00000406
 2D:   8   5  Points:   8 Conv: 0.00000143 0.00000139
 2D:   8   4  Points:  16 Conv: 0.00000912 0.00000907
 2D:   8   3  Points:   8 Conv: 0.00000042 0.00000046
 2D:   8   2  Points:  16 Conv: 0.00000408 0.00000400
 2D:   8   1  Points:  16 Conv: 0.00000164 0.00000162
 2D:   7   6  Points:   8 Conv: 0.00000333 0.00000331
 2D:   7   5  Points:   8 Conv: 0.00000084 0.00000081
 2D:   7   4  Points:  16 Conv: 0.00000625 0.00000623
 2D:   7   3  Points:   8 Conv: 0.00000023 0.00000020
 2D:   7   2  Points:  16 Conv: 0.00000150 0.00000134
 2D:   7   1  Points:  16 Conv: 0.00000243 0.00000239
 2D:   6   5  Points:   8 Conv: 0.00000523 0.00000511
 2D:   6   4  Points:   8 Conv: 0.00000188 0.00000187
 2D:   6   3  Points:   8 Conv: 0.00000215 0.00000203
 2D:   6   2  Points:   8 Conv: 0.00000023 0.00000021
 2D:   6   1  Points:   8 Conv: 0.00000024 0.00000020
 2D:   5   4  Points:   8 Conv: 0.00000083 0.00000084
 2D:   5   3  Points:   8 Conv: 0.00000501 0.00000478
 2D:   5   2  Points:   8 Conv: 0.00000051 0.00000052
 2D:   5   1  Points:   8 Conv: 0.00000019 0.00000015
 2D:   4   3  Points:   8 Conv: 0.00000012 0.00000005
 2D:   4   2  Points:  16 Conv: 0.00001142 0.00001128
 2D:   4   1  Points:  16 Conv: 0.00000601 0.00000611
 2D:   3   2  Points:   8 Conv: 0.00000028 0.00000028
 2D:   3   1  Points:   8 Conv: 0.00000064 0.00000061
 2D:   2   1  Points:  16 Conv: 0.00000216 0.00000214
 2D:  14  10  Points:  36 Conv: 0.00001466 0.00001465
 2D:  14   1  Points:  36 Conv: 0.00000730 0.00000729
 2D:  13   9  Points:  18 Conv: 0.00001579 0.00001579
 2D:  10   2  Points:  36 Conv: 0.00001166 0.00001167

 Calculating 3D coupling potential

 3D:  18  17  16  Points:    4 Conv: 0.00000109
 3D:  18  17  15  Points:    4 Conv: 0.00005267
 3D:  18  17  14  Points:    4 Conv: 0.00000003
 3D:  18  17  13  Points:    4 Conv: 0.00000423
 3D:  18  17  12  Points:    4 Conv: 0.00000006
 3D:  18  17  11  Points:    4 Conv: 0.00000036
 3D:  18  17  10  Points:    4 Conv: 0.00000008
 3D:  18  17   9  Points:    4 Conv: 0.00000132
 3D:  18  17   8  Points:    4 Conv: 0.00000003
 3D:  18  17   7  Points:    4 Conv: 0.00000006
 3D:  18  17   6  Points:    4 Conv: 0.00000235
 3D:  18  17   5  Points:    4 Conv: 0.00000085
 3D:  18  17   4  Points:    4 Conv: 0.00000004
 3D:  18  17   3  Points:    4 Conv: 0.00000018
 3D:  18  17   2  Points:    4 Conv: 0.00000007
 3D:  18  17   1  Points:    4 Conv: 0.00000006
 3D:  18  16  15  Points:    4 Conv: 0.00000089
 3D:  18  16  14  Points:    4 Conv: 0.00000009
 3D:  18  16  13  Points:    4 Conv: 0.00000059
 3D:  18  16  12  Points:    4 Conv: 0.00000007
 3D:  18  16  11  Points:    4 Conv: 0.00000111
 3D:  18  16  10  Points:    4 Conv: 0.00000004
 3D:  18  16   9  Points:    4 Conv: 0.00000021
 3D:  18  16   8  Points:    4 Conv: 0.00000009
 3D:  18  16   7  Points:    4 Conv: 0.00000003
 3D:  18  16   6  Points:    4 Conv: 0.00000086
 3D:  18  16   5  Points:    4 Conv: 0.00000085
 3D:  18  16   4  Points:    4 Conv: 0.00000002
 3D:  18  16   3  Points:    4 Conv: 0.00000052
 3D:  18  16   2  Points:    4 Conv: 0.00000005
 3D:  18  16   1  Points:    4 Conv: 0.00000004
 3D:  18  15  14  Points:    4 Conv: 0.00000030
 3D:  18  15  13  Points:    4 Conv: 0.00000028
 3D:  18  15  12  Points:    4 Conv: 0.00000136
 3D:  18  15  11  Points:    4 Conv: 0.00000004
 3D:  18  15  10  Points:    4 Conv: 0.00000055
 3D:  18  15   9  Points:    4 Conv: 0.00000032
 3D:  18  15   8  Points:    4 Conv: 0.00000084
 3D:  18  15   7  Points:    4 Conv: 0.00000092
 3D:  18  15   6  Points:    4 Conv: 0.00000007
 3D:  18  15   5  Points:    4 Conv: 0.00000013
 3D:  18  15   4  Points:    4 Conv: 0.00000033
 3D:  18  15   3  Points:    4 Conv: 0.00000009
 3D:  18  15   2  Points:    4 Conv: 0.00000010
 3D:  18  15   1  Points:    4 Conv: 0.00000029
 3D:  18  14  13  Points:    4 Conv: 0.00000017
 3D:  18  14  12  Points:    4 Conv: 0.00000003
 3D:  18  14  11  Points:    4 Conv: 0.00000312
 3D:  18  14  10  Points:    4 Conv: 0.00000005
 3D:  18  14   9  Points:    4 Conv: 0.00000238
 3D:  18  14   8  Points:    4 Conv: 0.00000008
 3D:  18  14   7  Points:    4 Conv: 0.00000012
 3D:  18  14   6  Points:    4 Conv: 0.00000406
 3D:  18  14   5  Points:    4 Conv: 0.00000747
 3D:  18  14   4  Points:    4 Conv: 0.00000010
 3D:  18  14   3  Points:    4 Conv: 0.00000619
 3D:  18  14   2  Points:    4 Conv: 0.00000011
 3D:  18  14   1  Points:    4 Conv: 0.00000006
 3D:  18  13  12  Points:    4 Conv: 0.00000008
 3D:  18  13  11  Points:    4 Conv: 0.00000010
 3D:  18  13  10  Points:    4 Conv: 0.00000027
 3D:  18  13   9  Points:    4 Conv: 0.00000011
 3D:  18  13   8  Points:    4 Conv: 0.00000550
 3D:  18  13   7  Points:    4 Conv: 0.00000601
 3D:  18  13   6  Points:    4 Conv: 0.00000015
 3D:  18  13   5  Points:    4 Conv: 0.00000021
 3D:  18  13   4  Points:    4 Conv: 0.00000474
 3D:  18  13   3  Points:    4 Conv: 0.00000018
 3D:  18  13   2  Points:    4 Conv: 0.00000802
 3D:  18  13   1  Points:    4 Conv: 0.00000475
 3D:  18  12  11  Points:    4 Conv: 0.00000402
 3D:  18  12  10  Points:    4 Conv: 0.00000017
 3D:  18  12   9  Points:    4 Conv: 0.00000616
 3D:  18  12   8  Points:    4 Conv: 0.00000002
 3D:  18  12   7  Points:    4 Conv: 0.00000015
 3D:  18  12   6  Points:    4 Conv: 0.00000062
 3D:  18  12   5  Points:    4 Conv: 0.00000570
 3D:  18  12   4  Points:    4 Conv: 0.00000007
 3D:  18  12   3  Points:    4 Conv: 0.00000383
 3D:  18  12   2  Points:    4 Conv: 0.00000012
 3D:  18  12   1  Points:    4 Conv: 0.00000012
 3D:  18  11  10  Points:    4 Conv: 0.00000598
 3D:  18  11   9  Points:    4 Conv: 0.00000040
 3D:  18  11   8  Points:    4 Conv: 0.00000076
 3D:  18  11   7  Points:    4 Conv: 0.00000069
 3D:  18  11   6  Points:    4 Conv: 0.00000008
 3D:  18  11   5  Points:    4 Conv: 0.00000015
 3D:  18  11   4  Points:    4 Conv: 0.00000114
 3D:  18  11   3  Points:    4 Conv: 0.00000009
 3D:  18  11   2  Points:    4 Conv: 0.00000032
 3D:  18  11   1  Points:    4 Conv: 0.00000215
 3D:  18  10   9  Points:    4 Conv: 0.00000256
 3D:  18  10   8  Points:    4 Conv: 0.00000004
 3D:  18  10   7  Points:    4 Conv: 0.00000003
 3D:  18  10   6  Points:    4 Conv: 0.00000042
 3D:  18  10   5  Points:    4 Conv: 0.00000186
 3D:  18  10   4  Points:    4 Conv: 0.00000016
 3D:  18  10   3  Points:    4 Conv: 0.00000151
 3D:  18  10   2  Points:    4 Conv: 0.00000002
 3D:  18  10   1  Points:    4 Conv: 0.00000016
 3D:  18   9   8  Points:    4 Conv: 0.00000024
 3D:  18   9   7  Points:    4 Conv: 0.00000013
 3D:  18   9   6  Points:    4 Conv: 0.00000012
 3D:  18   9   5  Points:    4 Conv: 0.00000011
 3D:  18   9   4  Points:    4 Conv: 0.00000248
 3D:  18   9   3  Points:    4 Conv: 0.00000004
 3D:  18   9   2  Points:    4 Conv: 0.00000010
 3D:  18   9   1  Points:    4 Conv: 0.00000212
 3D:  18   8   7  Points:    4 Conv: 0.00000029
 3D:  18   8   6  Points:    4 Conv: 0.00000132
 3D:  18   8   5  Points:    4 Conv: 0.00000030
 3D:  18   8   4  Points:    4 Conv: 0.00000021
 3D:  18   8   3  Points:    4 Conv: 0.00000006
 3D:  18   8   2  Points:    4 Conv: 0.00000033
 3D:  18   8   1  Points:    4 Conv: 0.00000020
 3D:  18   7   6  Points:    4 Conv: 0.00000178
 
 3D:  18   7   5  Points:    4 Conv: 0.00000159
 3D:  18   7   4  Points:    4 Conv: 0.00000020
 3D:  18   7   3  Points:    4 Conv: 0.00000123
 3D:  18   7   2  Points:    4 Conv: 0.00000039
 3D:  18   7   1  Points:    4 Conv: 0.00000025
 3D:  18   6   5  Points:    4 Conv: 0.00000030
 3D:  18   6   4  Points:    4 Conv: 0.00000194
 3D:  18   6   3  Points:    4 Conv: 0.00000023
 3D:  18   6   2  Points:    4 Conv: 0.00000172
 3D:  18   6   1  Points:    4 Conv: 0.00000047
 3D:  18   5   4  Points:    4 Conv: 0.00000130
 3D:  18   5   3  Points:    4 Conv: 0.00000052
 3D:  18   5   2  Points:    4 Conv: 0.00000226
 3D:  18   5   1  Points:    4 Conv: 0.00000122
 3D:  18   4   3  Points:    4 Conv: 0.00000076
 3D:  18   4   2  Points:    4 Conv: 0.00000027
 3D:  18   4   1  Points:    4 Conv: 0.00000009
 3D:  18   3   2  Points:    4 Conv: 0.00000157
 3D:  18   3   1  Points:    4 Conv: 0.00000072
 3D:  18   2   1  Points:    4 Conv: 0.00000027
 3D:  17  16  15  Points:    4 Conv: 0.00000091
 3D:  17  16  14  Points:    8 Conv: 0.00000159
 3D:  17  16  13  Points:    4 Conv: 0.00000025
 3D:  17  16  12  Points:    8 Conv: 0.00000126
 3D:  17  16  11  Points:    4 Conv: 0.00000006
 3D:  17  16  10  Points:    8 Conv: 0.00000068
 3D:  17  16   9  Points:    4 Conv: 0.00000035
 3D:  17  16   8  Points:    8 Conv: 0.00000118
 3D:  17  16   7  Points:    8 Conv: 0.00000126
 3D:  17  16   6  Points:    4 Conv: 0.00000004
 3D:  17  16   5  Points:    4 Conv: 0.00000005
 3D:  17  16   4  Points:    8 Conv: 0.00000060
 3D:  17  16   3  Points:    4 Conv: 0.00000004
 3D:  17  16   2  Points:    8 Conv: 0.00000020
 3D:  17  16   1  Points:    8 Conv: 0.00000046
 3D:  17  15  14  Points:    4 Conv: 0.00000004
 3D:  17  15  13  Points:    4 Conv: 0.00000009
 3D:  17  15  12  Points:    4 Conv: 0.00000003
 3D:  17  15  11  Points:    4 Conv: 0.00000141
 3D:  17  15  10  Points:    4 Conv: 0.00000007
 3D:  17  15   9  Points:    4 Conv: 0.00000040
 3D:  17  15   8  Points:    4 Conv: 0.00000006
 3D:  17  15   7  Points:    4 Conv: 0.00000009
 3D:  17  15   6  Points:    4 Conv: 0.00000183
 3D:  17  15   5  Points:    4 Conv: 0.00000064
 3D:  17  15   4  Points:    4 Conv: 0.00000004
 3D:  17  15   3  Points:    4 Conv: 0.00000068
 3D:  17  15   2  Points:    4 Conv: 0.00000007
 3D:  17  15   1  Points:    4 Conv: 0.00000004
 3D:  17  14  13  Points:    4 Conv: 0.00000009
 3D:  17  14  12  Points:    8 Conv: 0.00000166
 3D:  17  14  11  Points:    4 Conv: 0.00000012
 3D:  17  14  10  Points:    8 Conv: 0.00000084
 3D:  17  14   9  Points:    4 Conv: 0.00000013
 3D:  17  14   8  Points:    8 Conv: 0.00000587
 3D:  17  14   7  Points:    8 Conv: 0.00000634
 3D:  17  14   6  Points:    4 Conv: 0.00000005
 3D:  17  14   5  Points:    4 Conv: 0.00000003
 3D:  17  14   4  Points:    8 Conv: 0.00000451
 3D:  17  14   3  Points:    4 Conv: 0.00000002
 3D:  17  14   2  Points:    8 Conv: 0.00000790
 3D:  17  14   1  Points:    8 Conv: 0.00000480
 3D:  17  13  12  Points:    4 Conv: 0.00000003
 3D:  17  13  11  Points:    4 Conv: 0.00000199
 3D:  17  13  10  Points:    4 Conv: 0.00000001
 3D:  17  13   9  Points:    4 Conv: 0.00000146
 3D:  17  13   8  Points:    4 Conv: 0.00000015
 3D:  17  13   7  Points:    4 Conv: 0.00000014
 3D:  17  13   6  Points:    4 Conv: 0.00000392
 3D:  17  13   5  Points:    4 Conv: 0.00000868
 3D:  17  13   4  Points:    4 Conv: 0.00000015
 3D:  17  13   3  Points:    4 Conv: 0.00000716
 3D:  17  13   2  Points:    4 Conv: 0.00000025
 3D:  17  13   1  Points:    4 Conv: 0.00000015
 3D:  17  12  11  Points:    4 Conv: 0.00000018
 3D:  17  12  10  Points:    8 Conv: 0.00000562
 3D:  17  12   9  Points:    4 Conv: 0.00000025
 3D:  17  12   8  Points:    8 Conv: 0.00000108
 3D:  17  12   7  Points:    8 Conv: 0.00000122
 3D:  17  12   6  Points:    4 Conv: 0.00000000
 3D:  17  12   5  Points:    4 Conv: 0.00000006
 3D:  17  12   4  Points:    8 Conv: 0.00000280
 3D:  17  12   3  Points:    4 Conv: 0.00000002
 3D:  17  12   2  Points:    8 Conv: 0.00000239
 3D:  17  12   1  Points:    8 Conv: 0.00000072
 3D:  17  11  10  Points:    4 Conv: 0.00000041
 3D:  17  11   9  Points:    4 Conv: 0.00000689
 3D:  17  11   8  Points:    4 Conv: 0.00000006
 3D:  17  11   7  Points:    4 Conv: 0.00000009
 3D:  17  11   6  Points:    4 Conv: 0.00000098
 3D:  17  11   5  Points:    4 Conv: 0.00000286
 3D:  17  11   4  Points:    4 Conv: 0.00000019
 3D:  17  11   3  Points:    4 Conv: 0.00000205
 3D:  17  11   2  Points:    4 Conv: 0.00000001
 3D:  17  11   1  Points:    4 Conv: 0.00000018
 3D:  17  10   9  Points:    4 Conv: 0.00000048
 3D:  17  10   8  Points:    8 Conv: 0.00000070
 3D:  17  10   7  Points:    8 Conv: 0.00000081
 3D:  17  10   6  Points:    4 Conv: 0.00000006
 3D:  17  10   5  Points:    4 Conv: 0.00000001
 3D:  17  10   4  Points:    8 Conv: 0.00000279
 3D:  17  10   3  Points:    4 Conv: 0.00000001
 3D:  17  10   2  Points:    8 Conv: 0.00000103
 3D:  17  10   1  Points:    8 Conv: 0.00000381
 3D:  17   9   8  Points:    4 Conv: 0.00000000
 3D:  17   9   7  Points:    4 Conv: 0.00000010
 3D:  17   9   6  Points:    4 Conv: 0.00000028
 3D:  17   9   5  Points:    4 Conv: 0.00000168
 3D:  17   9   4  Points:    4 Conv: 0.00000024
 3D:  17   9   3  Points:    4 Conv: 0.00000116
 3D:  17   9   2  Points:    4 Conv: 0.00000003
 3D:  17   9   1  Points:    4 Conv: 0.00000020
 3D:  17   8   7  Points:    8 Conv: 0.00000056
 3D:  17   8   6  Points:    4 Conv: 0.00000001
 3D:  17   8   5  Points:    4 Conv: 0.00000004
 3D:  17   8   4  Points:    8 Conv: 0.00000073
 
 3D:  17   8   3  Points:    4 Conv: 0.00000006
 3D:  17   8   2  Points:    8 Conv: 0.00000038
 3D:  17   8   1  Points:    8 Conv: 0.00000023
 3D:  17   7   6  Points:    4 Conv: 0.00000002
 3D:  17   7   5  Points:    4 Conv: 0.00000004
 3D:  17   7   4  Points:    8 Conv: 0.00000130
 3D:  17   7   3  Points:    4 Conv: 0.00000005
 3D:  17   7   2  Points:    8 Conv: 0.00000071
 3D:  17   7   1  Points:    8 Conv: 0.00000032
 3D:  17   6   5  Points:    4 Conv: 0.00000139
 3D:  17   6   4  Points:    4 Conv: 0.00000002
 3D:  17   6   3  Points:    4 Conv: 0.00000065
 3D:  17   6   2  Points:    4 Conv: 0.00000002
 3D:  17   6   1  Points:    4 Conv: 0.00000001
 3D:  17   5   4  Points:    4 Conv: 0.00000007
 3D:  17   5   3  Points:    4 Conv: 0.00000055
 3D:  17   5   2  Points:    4 Conv: 0.00000010
 3D:  17   5   1  Points:    4 Conv: 0.00000006
 3D:  17   4   3  Points:    4 Conv: 0.00000005
 3D:  17   4   2  Points:    8 Conv: 0.00000029
 3D:  17   4   1  Points:    8 Conv: 0.00000171
 3D:  17   3   2  Points:    4 Conv: 0.00000008
 3D:  17   3   1  Points:    4 Conv: 0.00000005
 3D:  17   2   1  Points:    8 Conv: 0.00000031
 3D:  16  15  14  Points:    4 Conv: 0.00000015
 3D:  16  15  13  Points:    4 Conv: 0.00000143
 3D:  16  15  12  Points:    4 Conv: 0.00000005
 3D:  16  15  11  Points:    4 Conv: 0.00000101
 3D:  16  15  10  Points:    4 Conv: 0.00000007
 3D:  16  15   9  Points:    4 Conv: 0.00000184
 3D:  16  15   8  Points:    4 Conv: 0.00000002
 3D:  16  15   7  Points:    4 Conv: 0.00000008
 3D:  16  15   6  Points:    4 Conv: 0.00000221
 3D:  16  15   5  Points:    4 Conv: 0.00000012
 3D:  16  15   4  Points:    4 Conv: 0.00000004
 3D:  16  15   3  Points:    4 Conv: 0.00000081
 3D:  16  15   2  Points:    4 Conv: 0.00000005
 3D:  16  15   1  Points:    4 Conv: 0.00000003
 3D:  16  14  13  Points:    4 Conv: 0.00000032
 3D:  16  14  12  Points:    8 Conv: 0.00000102
 3D:  16  14  11  Points:    4 Conv: 0.00000002
 3D:  16  14  10  Points:    8 Conv: 0.00000045
 3D:  16  14   9  Points:    4 Conv: 0.00000004
 3D:  16  14   8  Points:    8 Conv: 0.00000090
 3D:  16  14   7  Points:    8 Conv: 0.00000045
 3D:  16  14   6  Points:    4 Conv: 0.00000001
 3D:  16  14   5  Points:    4 Conv: 0.00000007
 3D:  16  14   4  Points:    8 Conv: 0.00000021
 3D:  16  14   3  Points:    4 Conv: 0.00000008
 3D:  16  14   2  Points:    8 Conv: 0.00000070
 3D:  16  14   1  Points:    8 Conv: 0.00000032
 3D:  16  13  12  Points:    4 Conv: 0.00000007
 3D:  16  13  11  Points:    4 Conv: 0.00000076
 3D:  16  13  10  Points:    4 Conv: 0.00000006
 3D:  16  13   9  Points:    4 Conv: 0.00000018
 3D:  16  13   8  Points:    4 Conv: 0.00000012
 3D:  16  13   7  Points:    4 Conv: 0.00000007
 3D:  16  13   6  Points:    4 Conv: 0.00000104
 3D:  16  13   5  Points:    4 Conv: 0.00000068
 3D:  16  13   4  Points:    4 Conv: 0.00000003
 3D:  16  13   3  Points:    4 Conv: 0.00000111
 3D:  16  13   2  Points:    4 Conv: 0.00000011
 3D:  16  13   1  Points:    4 Conv: 0.00000009
 3D:  16  12  11  Points:    4 Conv: 0.00000022
 3D:  16  12  10  Points:    8 Conv: 0.00000077
 3D:  16  12   9  Points:    4 Conv: 0.00000026
 3D:  16  12   8  Points:    8 Conv: 0.00000021
 3D:  16  12   7  Points:    8 Conv: 0.00000013
 3D:  16  12   6  Points:    4 Conv: 0.00000002
 3D:  16  12   5  Points:    4 Conv: 0.00000003
 3D:  16  12   4  Points:    8 Conv: 0.00000145
 3D:  16  12   3  Points:    4 Conv: 0.00000001
 3D:  16  12   2  Points:    8 Conv: 0.00000026
 3D:  16  12   1  Points:    8 Conv: 0.00000131
 3D:  16  11  10  Points:    4 Conv: 0.00000027
 3D:  16  11   9  Points:    4 Conv: 0.00000058
 3D:  16  11   8  Points:    4 Conv: 0.00000010
 3D:  16  11   7  Points:    4 Conv: 0.00000002
 3D:  16  11   6  Points:    4 Conv: 0.00000068
 3D:  16  11   5  Points:    4 Conv: 0.00000044
 3D:  16  11   4  Points:    4 Conv: 0.00000019
 3D:  16  11   3  Points:    4 Conv: 0.00000014
 3D:  16  11   2  Points:    4 Conv: 0.00000007
 3D:  16  11   1  Points:    4 Conv: 0.00000009
 3D:  16  10   9  Points:    4 Conv: 0.00000035
 3D:  16  10   8  Points:    8 Conv: 0.00000110
 3D:  16  10   7  Points:    8 Conv: 0.00000065
 3D:  16  10   6  Points:    4 Conv: 0.00000005
 3D:  16  10   5  Points:    4 Conv: 0.00000002
 3D:  16  10   4  Points:    8 Conv: 0.00000278
 3D:  16  10   3  Points:    4 Conv: 0.00000001
 3D:  16  10   2  Points:    8 Conv: 0.00000012
 3D:  16  10   1  Points:    8 Conv: 0.00000360
 3D:  16   9   8  Points:    4 Conv: 0.00000013
 3D:  16   9   7  Points:    4 Conv: 0.00000002
 3D:  16   9   6  Points:    4 Conv: 0.00000142
 3D:  16   9   5  Points:    4 Conv: 0.00000063
 3D:  16   9   4  Points:    4 Conv: 0.00000023
 3D:  16   9   3  Points:    4 Conv: 0.00000015
 3D:  16   9   2  Points:    4 Conv: 0.00000009
 3D:  16   9   1  Points:    4 Conv: 0.00000011
 3D:  16   8   7  Points:    8 Conv: 0.00000392
 3D:  16   8   6  Points:    4 Conv: 0.00000001
 3D:  16   8   5  Points:    4 Conv: 0.00000007
 3D:  16   8   4  Points:    8 Conv: 0.00000332
 3D:  16   8   3  Points:    4 Conv: 0.00000003
 3D:  16   8   2  Points:    8 Conv: 0.00000544
 3D:  16   8   1  Points:    8 Conv: 0.00000326
 3D:  16   7   6  Points:    4 Conv: 0.00000002
 3D:  16   7   5  Points:    4 Conv: 0.00000006
 3D:  16   7   4  Points:    8 Conv: 0.00000266
 3D:  16   7   3  Points:    4 Conv: 0.00000003
 3D:  16   7   2  Points:    8 Conv: 0.00000592
 3D:  16   7   1  Points:    8 Conv: 0.00000400
 3D:  16   6   5  Points:    4 Conv: 0.00000385
 3D:  16   6   4  Points:    4 Conv: 0.00000002
 
 3D:  16   6   3  Points:    4 Conv: 0.00000328
 3D:  16   6   2  Points:    4 Conv: 0.00000002
 3D:  16   6   1  Points:    4 Conv: 0.00000001
 3D:  16   5   4  Points:    4 Conv: 0.00000003
 3D:  16   5   3  Points:    4 Conv: 0.00000780
 3D:  16   5   2  Points:    4 Conv: 0.00000008
 3D:  16   5   1  Points:    4 Conv: 0.00000005
 3D:  16   4   3  Points:    4 Conv: 0.00000002
 3D:  16   4   2  Points:    8 Conv: 0.00000435
 3D:  16   4   1  Points:    8 Conv: 0.00000095
 3D:  16   3   2  Points:    4 Conv: 0.00000004
 3D:  16   3   1  Points:    4 Conv: 0.00000003
 3D:  16   2   1  Points:    8 Conv: 0.00000458
 3D:  15  14  13  Points:    4 Conv: 0.00000681
 3D:  15  14  12  Points:    4 Conv: 0.00000014
 3D:  15  14  11  Points:    4 Conv: 0.00000005
 3D:  15  14  10  Points:    4 Conv: 0.00000012
 3D:  15  14   9  Points:    4 Conv: 0.00000009
 3D:  15  14   8  Points:    4 Conv: 0.00000033
 3D:  15  14   7  Points:    4 Conv: 0.00000029
 3D:  15  14   6  Points:    4 Conv: 0.00000025
 3D:  15  14   5  Points:    4 Conv: 0.00000298
 3D:  15  14   4  Points:    4 Conv: 0.00000019
 3D:  15  14   3  Points:    4 Conv: 0.00000290
 3D:  15  14   2  Points:    4 Conv: 0.00000037
 3D:  15  14   1  Points:    4 Conv: 0.00000024
 3D:  15  13  12  Points:    4 Conv: 0.00000229
 3D:  15  13  11  Points:    4 Conv: 0.00000012
 3D:  15  13  10  Points:    4 Conv: 0.00000013
 3D:  15  13   9  Points:    4 Conv: 0.00000016
 3D:  15  13   8  Points:    4 Conv: 0.00000231
 3D:  15  13   7  Points:    4 Conv: 0.00000176
 3D:  15  13   6  Points:    4 Conv: 0.00000011
 3D:  15  13   5  Points:    4 Conv: 0.00000043
 3D:  15  13   4  Points:    4 Conv: 0.00000092
 3D:  15  13   3  Points:    4 Conv: 0.00000038
 3D:  15  13   2  Points:    4 Conv: 0.00000218
 3D:  15  13   1  Points:    4 Conv: 0.00000125
 3D:  15  12  11  Points:    4 Conv: 0.00000773
 3D:  15  12  10  Points:    4 Conv: 0.00000027
 3D:  15  12   9  Points:    4 Conv: 0.00000074
 3D:  15  12   8  Points:    4 Conv: 0.00000008
 3D:  15  12   7  Points:    4 Conv: 0.00000005
 3D:  15  12   6  Points:    4 Conv: 0.00000012
 3D:  15  12   5  Points:    4 Conv: 0.00000129
 3D:  15  12   4  Points:    4 Conv: 0.00000024
 3D:  15  12   3  Points:    4 Conv: 0.00000063
 3D:  15  12   2  Points:    4 Conv: 0.00000004
 3D:  15  12   1  Points:    4 Conv: 0.00000014
 3D:  15  11  10  Points:    4 Conv: 0.00000324
 3D:  15  11   9  Points:    4 Conv: 0.00000060
 3D:  15  11   8  Points:    4 Conv: 0.00000088
 3D:  15  11   7  Points:    4 Conv: 0.00000110
 3D:  15  11   6  Points:    4 Conv: 0.00000009
 3D:  15  11   5  Points:    4 Conv: 0.00000013
 3D:  15  11   4  Points:    4 Conv: 0.00000373
 3D:  15  11   3  Points:    4 Conv: 0.00000007
 3D:  15  11   2  Points:    4 Conv: 0.00000161
 3D:  15  11   1  Points:    4 Conv: 0.00000152
 3D:  15  10   9  Points:    4 Conv: 0.00000780
 3D:  15  10   8  Points:    4 Conv: 0.00000009
 3D:  15  10   7  Points:    4 Conv: 0.00000019
 3D:  15  10   6  Points:    4 Conv: 0.00000065
 3D:  15  10   5  Points:    4 Conv: 0.00000102
 3D:  15  10   4  Points:    4 Conv: 0.00000035
 3D:  15  10   3  Points:    4 Conv: 0.00000048
 3D:  15  10   2  Points:    4 Conv: 0.00000007
 3D:  15  10   1  Points:    4 Conv: 0.00000042
 3D:  15   9   8  Points:    4 Conv: 0.00000182
 3D:  15   9   7  Points:    4 Conv: 0.00000172
 3D:  15   9   6  Points:    4 Conv: 0.00000019
 3D:  15   9   5  Points:    4 Conv: 0.00000018
 3D:  15   9   4  Points:    4 Conv: 0.00000247
 3D:  15   9   3  Points:    4 Conv: 0.00000012
 3D:  15   9   2  Points:    4 Conv: 0.00000102
 3D:  15   9   1  Points:    4 Conv: 0.00000447
 3D:  15   8   7  Points:    4 Conv: 0.00000032
 3D:  15   8   6  Points:    4 Conv: 0.00000248
 3D:  15   8   5  Points:    4 Conv: 0.00000517
 3D:  15   8   4  Points:    4 Conv: 0.00000022
 3D:  15   8   3  Points:    4 Conv: 0.00000449
 3D:  15   8   2  Points:    4 Conv: 0.00000039
 3D:  15   8   1  Points:    4 Conv: 0.00000025
 3D:  15   7   6  Points:    4 Conv: 0.00000242
 3D:  15   7   5  Points:    4 Conv: 0.00000578
 3D:  15   7   4  Points:    4 Conv: 0.00000016
 3D:  15   7   3  Points:    4 Conv: 0.00000486
 3D:  15   7   2  Points:    4 Conv: 0.00000040
 3D:  15   7   1  Points:    4 Conv: 0.00000030
 3D:  15   6   5  Points:    4 Conv: 0.00000025
 3D:  15   6   4  Points:    4 Conv: 0.00000102
 3D:  15   6   3  Points:    4 Conv: 0.00000021
 3D:  15   6   2  Points:    4 Conv: 0.00000344
 3D:  15   6   1  Points:    4 Conv: 0.00000264
 3D:  15   5   4  Points:    4 Conv: 0.00000477
 3D:  15   5   3  Points:    4 Conv: 0.00000054
 3D:  15   5   2  Points:    4 Conv: 0.00000811
 3D:  15   5   1  Points:    4 Conv: 0.00000417
 3D:  15   4   3  Points:    4 Conv: 0.00000391
 3D:  15   4   2  Points:    4 Conv: 0.00000028
 3D:  15   4   1  Points:    4 Conv: 0.00000001
 3D:  15   3   2  Points:    4 Conv: 0.00000657
 3D:  15   3   1  Points:    4 Conv: 0.00000377
 3D:  15   2   1  Points:    4 Conv: 0.00000030
 3D:  14  13  12  Points:    4 Conv: 0.00000013
 3D:  14  13  11  Points:    4 Conv: 0.00000051
 3D:  14  13  10  Points:    4 Conv: 0.00000032
 3D:  14  13   9  Points:    4 Conv: 0.00000088
 3D:  14  13   8  Points:    4 Conv: 0.00000049
 3D:  14  13   7  Points:    4 Conv: 0.00000052
 3D:  14  13   6  Points:    4 Conv: 0.00000079
 3D:  14  13   5  Points:    4 Conv: 0.00000061
 3D:  14  13   4  Points:    4 Conv: 0.00000021
 3D:  14  13   3  Points:    4 Conv: 0.00000056
 3D:  14  13   2  Points:    4 Conv: 0.00000061
 3D:  14  13   1  Points:    4 Conv: 0.00000050
 
 3D:  14  12  11  Points:    4 Conv: 0.00000034
 3D:  14  12  10  Points:    8 Conv: 0.00000178
 3D:  14  12   9  Points:    4 Conv: 0.00000023
 3D:  14  12   8  Points:    8 Conv: 0.00000093
 3D:  14  12   7  Points:    8 Conv: 0.00000054
 3D:  14  12   6  Points:    4 Conv: 0.00000005
 3D:  14  12   5  Points:    4 Conv: 0.00000024
 3D:  14  12   4  Points:    8 Conv: 0.00000034
 3D:  14  12   3  Points:    4 Conv: 0.00000014
 3D:  14  12   2  Points:    8 Conv: 0.00000045
 3D:  14  12   1  Points:    8 Conv: 0.00000045
 3D:  14  11  10  Points:    4 Conv: 0.00000017
 3D:  14  11   9  Points:    4 Conv: 0.00000174
 3D:  14  11   8  Points:    4 Conv: 0.00000006
 3D:  14  11   7  Points:    4 Conv: 0.00000006
 3D:  14  11   6  Points:    4 Conv: 0.00000033
 3D:  14  11   5  Points:    4 Conv: 0.00000011
 3D:  14  11   4  Points:    4 Conv: 0.00000007
 3D:  14  11   3  Points:    4 Conv: 0.00000080
 3D:  14  11   2  Points:    4 Conv: 0.00000007
 3D:  14  11   1  Points:    4 Conv: 0.00000002
 3D:  14  10   9  Points:    4 Conv: 0.00000028
 3D:  14  10   8  Points:    8 Conv: 0.00000056
 3D:  14  10   7  Points:    8 Conv: 0.00000109
 3D:  14  10   6  Points:    4 Conv: 0.00000004
 3D:  14  10   5  Points:    4 Conv: 0.00000008
 3D:  14  10   4  Points:    8 Conv: 0.00000006
 3D:  14  10   3  Points:    4 Conv: 0.00000009
 3D:  14  10   2  Points:    8 Conv: 0.00000048
 3D:  14  10   1  Points:    8 Conv: 0.00000045
 3D:  14   9   8  Points:    4 Conv: 0.00000018
 3D:  14   9   7  Points:    4 Conv: 0.00000025
 3D:  14   9   6  Points:    4 Conv: 0.00000019
 3D:  14   9   5  Points:    4 Conv: 0.00000022
 3D:  14   9   4  Points:    4 Conv: 0.00000004
 3D:  14   9   3  Points:    4 Conv: 0.00000028
 3D:  14   9   2  Points:    4 Conv: 0.00000023
 3D:  14   9   1  Points:    4 Conv: 0.00000025
 3D:  14   8   7  Points:    8 Conv: 0.00000044
 3D:  14   8   6  Points:    4 Conv: 0.00000008
 3D:  14   8   5  Points:    4 Conv: 0.00000036
 3D:  14   8   4  Points:    8 Conv: 0.00000032
 3D:  14   8   3  Points:    4 Conv: 0.00000026
 3D:  14   8   2  Points:    8 Conv: 0.00000114
 3D:  14   8   1  Points:    8 Conv: 0.00000052
 3D:  14   7   6  Points:    4 Conv: 0.00000014
 3D:  14   7   5  Points:    4 Conv: 0.00000043
 3D:  14   7   4  Points:    8 Conv: 0.00000022
 3D:  14   7   3  Points:    4 Conv: 0.00000030
 3D:  14   7   2  Points:    8 Conv: 0.00000109
 3D:  14   7   1  Points:    8 Conv: 0.00000060
 3D:  14   6   5  Points:    4 Conv: 0.00000010
 3D:  14   6   4  Points:    4 Conv: 0.00000006
 3D:  14   6   3  Points:    4 Conv: 0.00000053
 3D:  14   6   2  Points:    4 Conv: 0.00000014
 3D:  14   6   1  Points:    4 Conv: 0.00000012
 3D:  14   5   4  Points:    4 Conv: 0.00000023
 3D:  14   5   3  Points:    4 Conv: 0.00000097
 3D:  14   5   2  Points:    4 Conv: 0.00000050
 3D:  14   5   1  Points:    4 Conv: 0.00000036
 3D:  14   4   3  Points:    4 Conv: 0.00000014
 3D:  14   4   2  Points:    8 Conv: 0.00000091
 3D:  14   4   1  Points:    8 Conv: 0.00000043
 3D:  14   3   2  Points:    4 Conv: 0.00000035
 3D:  14   3   1  Points:    4 Conv: 0.00000026
 3D:  14   2   1  Points:    8 Conv: 0.00000076
 3D:  13  12  11  Points:    4 Conv: 0.00000138
 3D:  13  12  10  Points:    4 Conv: 0.00000018
 3D:  13  12   9  Points:    4 Conv: 0.00000147
 3D:  13  12   8  Points:    4 Conv: 0.00000011
 3D:  13  12   7  Points:    4 Conv: 0.00000010
 3D:  13  12   6  Points:    4 Conv: 0.00000022
 3D:  13  12   5  Points:    4 Conv: 0.00000024
 3D:  13  12   4  Points:    4 Conv: 0.00000015
 3D:  13  12   3  Points:    4 Conv: 0.00000051
 3D:  13  12   2  Points:    4 Conv: 0.00000016
 3D:  13  12   1  Points:    4 Conv: 0.00000005
 3D:  13  11  10  Points:    4 Conv: 0.00000172
 3D:  13  11   9  Points:    4 Conv: 0.00000029
 3D:  13  11   8  Points:    4 Conv: 0.00000039
 3D:  13  11   7  Points:    4 Conv: 0.00000065
 3D:  13  11   6  Points:    4 Conv: 0.00000008
 3D:  13  11   5  Points:    4 Conv: 0.00000016
 3D:  13  11   4  Points:    4 Conv: 0.00000054
 3D:  13  11   3  Points:    4 Conv: 0.00000012
 3D:  13  11   2  Points:    4 Conv: 0.00000071
 3D:  13  11   1  Points:    4 Conv: 0.00000012
 3D:  13  10   9  Points:    4 Conv: 0.00000039
 3D:  13  10   8  Points:    4 Conv: 0.00000024
 3D:  13  10   7  Points:    4 Conv: 0.00000031
 3D:  13  10   6  Points:    4 Conv: 0.00000016
 3D:  13  10   5  Points:    4 Conv: 0.00000030
 3D:  13  10   4  Points:    4 Conv: 0.00000006
 3D:  13  10   3  Points:    4 Conv: 0.00000042
 3D:  13  10   2  Points:    4 Conv: 0.00000027
 3D:  13  10   1  Points:    4 Conv: 0.00000036
 3D:  13   9   8  Points:    4 Conv: 0.00000030
 3D:  13   9   7  Points:    4 Conv: 0.00000034
 3D:  13   9   6  Points:    4 Conv: 0.00000021
 3D:  13   9   5  Points:    4 Conv: 0.00000036
 3D:  13   9   4  Points:    4 Conv: 0.00000018
 3D:  13   9   3  Points:    4 Conv: 0.00000033
 3D:  13   9   2  Points:    4 Conv: 0.00000015
 3D:  13   9   1  Points:    4 Conv: 0.00000021
 3D:  13   8   7  Points:    4 Conv: 0.00000008
 3D:  13   8   6  Points:    4 Conv: 0.00000024
 3D:  13   8   5  Points:    4 Conv: 0.00000029
 3D:  13   8   4  Points:    4 Conv: 0.00000005
 3D:  13   8   3  Points:    4 Conv: 0.00000069
 3D:  13   8   2  Points:    4 Conv: 0.00000009
 3D:  13   8   1  Points:    4 Conv: 0.00000012
 3D:  13   7   6  Points:    4 Conv: 0.00000021
 3D:  13   7   5  Points:    4 Conv: 0.00000034
 3D:  13   7   4  Points:    4 Conv: 0.00000008
 3D:  13   7   3  Points:    4 Conv: 0.00000056
 3D:  13   7   2  Points:    4 Conv: 0.00000007
 
 3D:  13   7   1  Points:    4 Conv: 0.00000013
 3D:  13   6   5  Points:    4 Conv: 0.00000031
 3D:  13   6   4  Points:    4 Conv: 0.00000008
 3D:  13   6   3  Points:    4 Conv: 0.00000021
 3D:  13   6   2  Points:    4 Conv: 0.00000062
 3D:  13   6   1  Points:    4 Conv: 0.00000048
 3D:  13   5   4  Points:    4 Conv: 0.00000072
 3D:  13   5   3  Points:    4 Conv: 0.00000053
 3D:  13   5   2  Points:    4 Conv: 0.00000158
 3D:  13   5   1  Points:    4 Conv: 0.00000103
 3D:  13   4   3  Points:    4 Conv: 0.00000096
 3D:  13   4   2  Points:    4 Conv: 0.00000006
 3D:  13   4   1  Points:    4 Conv: 0.00000008
 3D:  13   3   2  Points:    4 Conv: 0.00000131
 3D:  13   3   1  Points:    4 Conv: 0.00000085
 3D:  13   2   1  Points:    4 Conv: 0.00000011
 3D:  12  11  10  Points:    4 Conv: 0.00000083
 3D:  12  11   9  Points:    4 Conv: 0.00000115
 3D:  12  11   8  Points:    4 Conv: 0.00000017
 3D:  12  11   7  Points:    4 Conv: 0.00000007
 3D:  12  11   6  Points:    4 Conv: 0.00000220
 3D:  12  11   5  Points:    4 Conv: 0.00000086
 3D:  12  11   4  Points:    4 Conv: 0.00000021
 3D:  12  11   3  Points:    4 Conv: 0.00000054
 3D:  12  11   2  Points:    4 Conv: 0.00000010
 3D:  12  11   1  Points:    4 Conv: 0.00000026
 3D:  12  10   9  Points:    4 Conv: 0.00000067
 3D:  12  10   8  Points:    8 Conv: 0.00000039
 3D:  12  10   7  Points:    8 Conv: 0.00000030
 3D:  12  10   6  Points:    4 Conv: 0.00000003
 3D:  12  10   5  Points:    4 Conv: 0.00000005
 3D:  12  10   4  Points:    8 Conv: 0.00000147
 3D:  12  10   3  Points:    4 Conv: 0.00000005
 3D:  12  10   2  Points:    8 Conv: 0.00000108
 3D:  12  10   1  Points:    8 Conv: 0.00000163
 3D:  12   9   8  Points:    4 Conv: 0.00000007
[...]
   |000000100000000100>     0.58859     0.16452     0.14445
   |000000100000001000>     0.58837     0.16461     0.14449
   |000000100000010000>     0.59236     0.16361     0.14424
   |000000100000100000>     0.59303     0.16348     0.14460
   |000000100001000000>     0.59280     0.16226     0.14298
   |000000100010000000>     0.59651     0.16106     0.14263
   |000000100100000000>     0.60107     0.15947     0.14208
   |000000101000000000>     0.60113     0.15962     0.14240
   |000000110000000000>     0.59026     0.16298     0.14374
   |000000200000000000>     0.59057     0.16289     0.14377
   |000001000000000000>     0.59074     0.16415     0.14427
   |000001000000000001>     0.58974     0.16451     0.14439
   |000001000000000010>     0.58909     0.16475     0.14448
   |000001000000000100>     0.58825     0.16490     0.14454
   |000001000000001000>     0.58803     0.16500     0.14458
   |000001000000010000>     0.59202     0.16400     0.14432
   |000001000000100000>     0.59270     0.16387     0.14468
   |000001000001000000>     0.59246     0.16265     0.14306
   |000001000010000000>     0.59617     0.16144     0.14272
   |000001000100000000>     0.60073     0.15985     0.14217
   |000001001000000000>     0.60079     0.16001     0.14248
   |000001010000000000>     0.58992     0.16336     0.14382
   |000001100000000000>     0.59023     0.16328     0.14386
   |000002000000000000>     0.58989     0.16366     0.14394
   |000010000000000000>     0.59156     0.16405     0.14401
   |000010000000000001>     0.59056     0.16440     0.14413
   |000010000000000010>     0.58990     0.16465     0.14422
   |000010000000000100>     0.58906     0.16480     0.14428
   |000010000000001000>     0.58884     0.16489     0.14432
   |000010000000010000>     0.59283     0.16390     0.14406
   |000010000000100000>     0.59351     0.16376     0.14443
   |000010000001000000>     0.59328     0.16255     0.14281
   |000010000010000000>     0.59698     0.16134     0.14246
   |000010000100000000>     0.60154     0.15975     0.14191
   |000010001000000000>     0.60160     0.15990     0.14222
   |000010010000000000>     0.59074     0.16326     0.14356
   |000010100000000000>     0.59104     0.16317     0.14360
   |000011000000000000>     0.59071     0.16356     0.14368
   |000020000000000000>     0.59152     0.16346     0.14342
   |000100000000000000>     0.59703     0.16169     0.14290
   |000100000000000001>     0.59603     0.16205     0.14303
   |000100000000000010>     0.59538     0.16229     0.14312
   |000100000000000100>     0.59453     0.16244     0.14318
   |000100000000001000>     0.59432     0.16254     0.14322
   |000100000000010000>     0.59830     0.16154     0.14296
   |000100000000100000>     0.59898     0.16141     0.14332
   |000100000001000000>     0.59875     0.16019     0.14170
   |000100000010000000>     0.60245     0.15898     0.14136
   |000100000100000000>     0.60701     0.15739     0.14081
   |000100001000000000>     0.60708     0.15754     0.14112
   |000100010000000000>     0.59621     0.16090     0.14246
   |000100100000000000>     0.59652     0.16082     0.14250
   |000101000000000000>     0.59618     0.16120     0.14258
   |000110000000000000>     0.59699     0.16110     0.14232
   |000200000000000000>     0.60247     0.15874     0.14122
   |001000000000000000>     0.59642     0.16302     0.14371
   |001000000000000001>     0.59542     0.16337     0.14384
   |001000000000000010>     0.59476     0.16362     0.14393
   |001000000000000100>     0.59392     0.16377     0.14399
   |001000000000001000>     0.59370     0.16386     0.14403
   |001000000000010000>     0.59769     0.16287     0.14377
   |001000000000100000>     0.59837     0.16273     0.14413
   |001000000001000000>     0.59813     0.16152     0.14251
   |001000000010000000>     0.60184     0.16031     0.14217
   |001000000100000000>     0.60640     0.15872     0.14162
   |001000001000000000>     0.60646     0.15887     0.14193
   |001000010000000000>     0.59559     0.16223     0.14327
   |001000100000000000>     0.59590     0.16214     0.14331
   |001001000000000000>     0.59556     0.16253     0.14339
   |001010000000000000>     0.59638     0.16243     0.14313
   |001100000000000000>     0.60185     0.16007     0.14203
   |002000000000000000>     0.60124     0.16140     0.14284
   |010000000000000000>     0.59261     0.16380     0.14417
   |010000000000000001>     0.59161     0.16415     0.14430
   |010000000000000010>     0.59096     0.16440     0.14439
   |010000000000000100>     0.59012     0.16455     0.14445
   |010000000000001000>     0.58990     0.16464     0.14449
   |010000000000010000>     0.59389     0.16365     0.14423
   |010000000000100000>     0.59457     0.16351     0.14459
   |010000000001000000>     0.59433     0.16230     0.14297
   |010000000010000000>     0.59804     0.16109     0.14262
   |010000000100000000>     0.60260     0.15950     0.14208
   |010000001000000000>     0.60266     0.15965     0.14239
   |010000010000000000>     0.59179     0.16301     0.14373
   |010000100000000000>     0.59210     0.16292     0.14376
   |010001000000000000>     0.59176     0.16331     0.14385
   |010010000000000000>     0.59258     0.16321     0.14359
   |010100000000000000>     0.59805     0.16085     0.14249
   |011000000000000000>     0.59743     0.16218     0.14330
   |020000000000000000>     0.59363     0.16296     0.14376
   |100000000000000000>     0.60553     0.16062     0.14271
   |100000000000000001>     0.60453     0.16097     0.14283
   |100000000000000010>     0.60388     0.16122     0.14292
   |100000000000000100>     0.60304     0.16137     0.14298
   |100000000000001000>     0.60282     0.16146     0.14302
   |100000000000010000>     0.60681     0.16047     0.14276
   |100000000000100000>     0.60749     0.16033     0.14313
   |100000000001000000>     0.60725     0.15912     0.14151
   |100000000010000000>     0.61096     0.15791     0.14116
   |100000000100000000>     0.61552     0.15632     0.14061
   |100000001000000000>     0.61558     0.15647     0.14092
   |100000010000000000>     0.60471     0.15983     0.14226
   |100000100000000000>     0.60502     0.15974     0.14230
   |100001000000000000>     0.60468     0.16013     0.14238
   |100010000000000000>     0.60549     0.16003     0.14212
   |100100000000000000>     0.61097     0.15767     0.14102
   |101000000000000000>     0.61035     0.15900     0.14183
   |110000000000000000>     0.60655     0.15978     0.14229
   |200000000000000000>     0.61947     0.15660     0.14082


 VPT2 zero-point vibrational energy (in cm^-1)

 Harmonic:       13449.63388
 Anharmonic:      -450.63372
 Kinetic:            0.96413
 Total:          12999.96429

 Results of VPT2 calculation (Frequencies in cm-1)


 Fundamentals

       Mode           Harmonic    Anharmonic     Intensity
      15^1 B           3018.68       3073.82         19.78
      18^1 B           3070.86       3006.86         82.04
      17^1 A           3062.28       2983.29          4.64
      16^1 A           3018.97       2879.95         49.31
      12^1 A           1446.32       1628.71     211401.04
      13^1 B           1484.03       1333.35         26.42
      14^1 A           1493.80       1319.90          0.70
      11^1 B           1405.01       1203.69         28.07
      10^1 A           1313.22       1118.38        530.52
       8^1 A           1157.46       1101.00        689.29
       6^1 B           1125.03       1099.24         37.08
       7^1 A           1140.48       1086.92        247.24
       9^1 B           1294.99       1073.98         51.06
       5^1 B            913.97        857.27         57.04
       4^1 A            887.21        850.81         15.90
       3^1 B            531.50        449.51         75.29
       2^1 A            345.97        289.04         44.46
       1^1 A            189.48         68.85          4.11


 Overtones

       Mode           Harmonic    Anharmonic     Intensity
      12^2 A           2892.65       3235.57          2.32
      13^2 A           2968.06       2655.71         15.75
      14^2 A           2987.60       2611.98         41.69
      11^2 A           2810.02       2345.40          0.62
       8^2 A           2314.92       2198.68          0.05
       6^2 A           2250.05       2190.52          0.59
      10^2 A           2626.44       2188.67          0.00
       7^2 A           2280.96       2166.71          0.00
       9^2 A           2589.98       2110.14          0.00
       5^2 A           1827.93       1717.10          0.00
       4^2 A           1774.42       1696.07          0.19
       3^2 A           1063.00        892.65          0.05
       2^2 A            691.94        579.36          0.02
       1^2 A            378.97        126.76          0.00


 Combination bands

       Mode           Harmonic    Anharmonic     Intensity
 12^1 15^1 B           4465.00       4731.22          0.10
 12^1 18^1 B           4517.19       4635.14          0.22
 12^1 17^1 A           4508.60       4606.74          0.00
 12^1 16^1 A           4465.30       4496.67          0.00
 13^1 15^1 A           4502.71       4495.69          0.33
 14^1 15^1 B           4512.48       4489.30          0.29
 13^1 18^1 A           4554.89       4317.58          0.18
 14^1 18^1 B           4564.66       4315.36          0.32
 14^1 17^1 A           4556.08       4300.19          0.23
 11^1 15^1 A           4423.69       4285.50          0.01
 13^1 17^1 B           4546.31       4285.08          0.31
 11^1 18^1 A           4475.87       4196.43          0.00
 14^1 16^1 A           4512.77       4181.08          0.12
 13^1 16^1 B           4503.00       4180.65          0.19
 10^1 15^1 B           4331.90       4180.31          0.06
 11^1 17^1 B           4467.29       4166.20          0.02
  8^1 15^1 B           4176.13       4152.96          0.51
  6^1 15^1 A           4143.70       4150.64          0.51
  9^1 15^1 A           4313.67       4140.08          0.07
  7^1 15^1 B           4159.16       4138.56          0.17
 10^1 18^1 B           4384.09       4107.70          0.01
  8^1 18^1 B           4228.32       4091.54          0.89
  6^1 18^1 A           4195.89       4088.98          0.04
 10^1 17^1 A           4375.50       4086.54          0.03
  7^1 18^1 B           4211.34       4077.82          0.02
  9^1 18^1 A           4365.85       4070.96          0.02
  8^1 17^1 A           4219.74       4070.43          0.12
  6^1 17^1 B           4187.31       4063.36          0.10
  7^1 17^1 A           4202.76       4056.92          0.09
 11^1 16^1 B           4423.98       4054.74          0.09
  9^1 17^1 B           4357.27       4049.51          0.08
 10^1 16^1 A           4332.20       3977.16          0.04
  8^1 16^1 A           4176.43       3968.95          0.08
  6^1 16^1 B           4144.00       3967.94          0.05
  7^1 16^1 A           4159.45       3954.38          0.21
  9^1 16^1 B           4313.96       3938.51          0.04
  5^1 15^1 A           3932.64       3907.27          0.00
  4^1 15^1 B           3905.88       3903.97          0.02
  5^1 18^1 A           3984.83       3843.51          0.00
  4^1 18^1 B           3958.07       3838.36          0.08
  5^1 17^1 B           3976.25       3820.30          0.14
  4^1 17^1 A           3949.49       3815.99          0.02
  5^1 16^1 B           3932.94       3723.42          0.24
  4^1 16^1 A           3906.18       3720.54          0.10
  3^1 15^1 A           3550.18       3501.63          0.09
  3^1 18^1 A           3602.36       3436.62          0.09
  3^1 17^1 B           3593.78       3414.00          0.27
  2^1 15^1 B           3364.65       3340.58          0.07
  3^1 16^1 B           3550.47       3318.25          0.02
  2^1 18^1 B           3416.83       3277.61          0.22
  2^1 17^1 A           3408.25       3254.22          0.17
  2^1 16^1 A           3364.94       3157.72          0.04
  1^1 15^1 B           3208.16       3124.41          0.05
  1^1 18^1 B           3260.35       3057.20          0.03
  1^1 17^1 A           3251.76       3035.43          0.22
 12^1 13^1 B           2930.35       2950.59          1.06
 12^1 14^1 A           2940.12       2942.63          2.00
  1^1 16^1 A           3208.46       2940.74          0.13
  5^1 12^1 B           2360.29       2850.42          0.07
  6^1 12^1 B           2571.35       2735.22          0.10
  8^1 12^1 A           2603.78       2732.53          0.00
  7^1 12^1 A           2586.80       2714.17          0.01
 11^1 12^1 B           2851.33       2709.86          1.78
 10^1 12^1 A           2759.55       2700.63          0.22
  9^1 12^1 B           2741.31       2661.22          0.31
 11^1 13^1 A           2889.04       2506.99          0.60
 11^1 14^1 B           2898.81       2494.98          0.15
 13^1 14^1 B           2977.83       2491.85         18.02
  4^1 12^1 A           2333.53       2484.78          0.21
  3^1 12^1 B           1977.82       2447.14          0.10
  6^1 13^1 A           2609.06       2431.79          0.01
  7^1 14^1 A           2634.28       2430.09          0.05
  6^1 14^1 B           2618.83       2419.11          0.01
 10^1 13^1 B           2797.25       2413.98          0.06
 10^1 14^1 A           2807.02       2412.88          0.06
  8^1 13^1 B           2641.49       2409.31          0.00
  7^1 13^1 B           2624.51       2392.80          0.26
  9^1 14^1 B           2788.79       2372.96          0.09
  8^1 14^1 A           2651.26       2372.55          0.00
  9^1 13^1 A           2779.02       2371.70          0.01
  6^1 11^1 A           2530.04       2290.09          0.01
  8^1 11^1 B           2562.47       2288.86          0.00
 10^1 11^1 B           2718.23       2282.96          0.75
  7^1 11^1 B           2545.49       2274.56          0.14
  6^1 10^1 B           2438.25       2207.59          0.01
  8^1 10^1 A           2470.68       2207.30          0.02
  9^1 11^1 A           2700.00       2204.93          0.14
  6^1  8^1 B           2282.49       2191.60          0.34
  7^1 10^1 A           2453.70       2186.63          0.17
  7^1  8^1 A           2297.94       2181.11          0.67
  6^1  7^1 B           2265.51       2180.88          0.15
  4^1 13^1 B           2371.24       2174.44          0.01
  5^1 13^1 A           2398.00       2170.99          0.01
  5^1 14^1 B           2407.77       2170.53          0.05
  4^1 14^1 A           2381.01       2170.12          0.00
  8^1  9^1 B           2452.45       2166.66          0.09
  6^1  9^1 A           2420.02       2165.58          0.00
  9^1 10^1 B           2608.21       2149.24          0.87
  7^1  9^1 B           2435.47       2149.04          0.00
  5^1 11^1 A           2318.98       2035.75          0.11
  4^1 11^1 B           2292.22       2022.51          0.26
  4^1 10^1 A           2200.43       1967.11          0.01
  5^1  6^1 A           2038.99       1960.19          0.83
  5^1  8^1 B           2071.43       1954.49          0.63
  5^1 10^1 B           2227.19       1954.07          0.01
  4^1  8^1 A           2044.67       1950.00          0.82
  4^1  6^1 B           2012.24       1947.81          0.29
  5^1  7^1 B           2054.45       1942.61          0.27
  4^1  7^1 A           2027.69       1937.31          0.32
  4^1  9^1 B           2182.20       1928.21          0.11
  2^1 12^1 A           1792.29       1916.57          0.00
  5^1  9^1 A           2208.96       1915.53          0.05
  3^1 13^1 A           2015.53       1763.95          0.00
  3^1 14^1 B           2025.30       1763.43          0.06
  4^1  5^1 B           1801.18       1709.15          0.22
  1^1 12^1 A           1635.81       1690.18          0.01
  2^1 13^1 B           1830.00       1608.00          0.04
  3^1 11^1 A           1936.51       1607.36          0.09
  2^1 14^1 A           1839.77       1603.56          0.00
  3^1  6^1 A           1656.53       1548.05          0.00
  3^1  8^1 B           1688.96       1545.86          0.26
  3^1 10^1 B           1844.72       1539.29          0.01
  3^1  7^1 B           1671.98       1532.64          0.07
  3^1  9^1 A           1826.49       1502.01          0.03
  2^1 11^1 B           1750.98       1473.79          0.16
  2^1  8^1 A           1503.43       1421.30          3.23
  2^1 10^1 A           1659.19       1384.29          0.10
  2^1  6^1 B           1471.00       1384.07          1.63
  1^1 14^1 A           1683.29       1368.09          0.00
  1^1 13^1 B           1673.51       1365.37          0.00
  2^1  7^1 A           1486.45       1347.50          0.20
  2^1  9^1 B           1640.96       1347.11          0.02
  3^1  4^1 B           1418.71       1308.14          5.97
  1^1 11^1 B           1594.49       1242.34          0.02
  1^1  6^1 B           1314.51       1168.59          0.89
  1^1  8^1 A           1346.94       1161.94          0.00
  1^1 10^1 A           1502.71       1160.32          0.99
  2^1  5^1 B           1259.94       1147.47          0.82
  1^1  7^1 A           1329.97       1142.73          0.18
  2^1  4^1 A           1233.18       1136.18          0.03
  1^1  9^1 B           1484.48       1114.18         29.09
  3^1  5^1 A           1445.47        931.06       2299.08
  1^1  5^1 B           1103.45        915.96          2.28
  1^1  4^1 A           1076.69        909.47          0.11
  2^1  3^1 B            877.47        735.08          0.16
  1^1  3^1 B            720.98        497.27          0.41
  1^1  2^1 A            535.45        338.64          0.00

 CPU-Time for VPT2 calculation:          0.2 sec.


 **********************************************************************************************************************************
 DATASETS  * FILE   NREC   LENGTH (MB)   RECORD NAMES
              1      21      268.28       500      610      700      900      950      970     1000      129      960     1100   
                                          VAR    BASINP    GEOM    SYMINP    ZMAT    AOBASIS   BASIS     P2S    ABASIS      S 
                                         1400     1410     1200     1210     1080     1600     1650     1300     1700     1800   
                                           T        V       H0       H01     AOSYM     SMH    MOLCAS    ERIS     OPER     GRID   
                                          703   
                                         GEOM   

              2      22     1734.50       700     1000      520     1800     2100      701      702     1001     2101     5300   
                                         GEOM     BASIS   MCVARS    GRID      RKS     GEOM     GEOM     BASIS     RKS     HESS   
                                         5450     5400     2102     5600     5650      703     1002     2103     5650(1)  5550   
                                         NMOD     FREQ      RKS     SURF    DIPOLE    GEOM     BASIS     RKS    DIPOLE   VIBINFO    
                                         5750     5770   
                                         POLY      MU  

 PROGRAMS   *        TOTAL      VPT2      POLY    KS-SCF       INT    KS-SCF       INT    KS-SCF       INT    KS-SCF       INT
 CPU TIMES  *     53333.13      0.23     20.39     13.51     22.06     18.44     14.02     18.61     13.88     13.64     22.05
 REAL TIME  *     55689.46 SEC
 DISK USED  *         2.67 GB
 **********************************************************************************************************************************

 VPT2/DEF2-TZVP energy=      0.000000000000

            VPT2            POLY          KS-SCF          KS-SCF          KS-SCF          KS-SCF          KS-SCF          KS-SCF
   -278.27985254   -278.27985254   -278.27985254   -278.27965203   -278.27972396   -278.27950772   -278.27950936   -278.27967044
 **********************************************************************************************************************************
 Molpro calculation terminated
