
 Primary working directories    : /jobfs/7706997.gadi-pbs/molpro.tqOAczZfVR
 Secondary working directories  : /jobfs/7706997.gadi-pbs/molpro.tqOAczZfVR
 Wavefunction directory         : /home/561/pk8622/wfu/
 Main file repository           : /jobfs/7706997.gadi-pbs/molpro.tqOAczZfVR/

 id        : anu

 Nodes                            nprocs
 gadi-cpu-clx-1435.gadi.nci.org.au    4

 Using customized tuning parameters: mindgm=1; mindgv=20; mindgc=4; mindgr=1; noblas=0; minvec=7
 default implementation of scratch files=df  


 Variables initialized (934), CPU time= 0.01 sec
 ***,Geom opt + VPT2 for fluoroethane
 
 memory,40,m
 basis=def2-TZVP
 
 orient,mass
 geomtyp=xyz
 geometry={
 8
 C         -0.62537        0.99175        0.00029
 C          0.88400        0.94396        0.00067
 H         -0.98946        1.53944        0.87496
 H         -1.04924       -0.01610        0.01212
 H         -0.98967        1.51884       -0.88687
 H          1.26465        0.44783        0.89750
 F          1.36227        2.21604       -0.01426
 H          1.26444        0.42699       -0.88440
 }
 mass,iso
 
 ks,M06
 optg
 
 frequencies
 
 label1
 {ks,M06
 start,atden}
 
 surf,start1D=label1,type=qff
 poly,type=qff
 vpt2,combi=1
 Commands  initialized (763), CPU time= 0.01 sec, 617 directives.
 Default parameters read. Elapsed time= 0.12 sec

 Checking input...
 Passed
1


                                         ***  PROGRAM SYSTEM MOLPRO  ***
                                       Copyright, TTI GmbH Stuttgart, 2015
                                    Version 2019.2 linked Nov 21 2019 12:21:21


 **********************************************************************************************************************************
 LABEL *   Geom opt + VPT2 for fluoroethane                                              
  64 bit mppx version                                                                    DATE: 24-Jun-20          TIME: 10:13:53  
 **********************************************************************************************************************************

 SHA1:             8dbd9ae1082e4ce945b0f27595c9eb2d4aa09004
 **********************************************************************************************************************************

 Variable memory set to   40000000 words,  buffer space 

 SETTING BASIS          =    DEF2-TZVP
 SETTING GEOMTYP        =    XYZ
 ZCENTRE=MASS
 


 Using masses of most abundant isotopes

 **********************************************************************************************************************************


 Recomputing integrals since basis changed


 Using spherical harmonics

 Library entry C      S def2-TZVP            selected for orbital group  1
 Library entry C      P def2-TZVP            selected for orbital group  1
 Library entry C      D def2-TZVP            selected for orbital group  1
 Library entry C      F def2-TZVP            selected for orbital group  1
 Library entry H      S def2-TZVP            selected for orbital group  2
 Library entry H      P def2-TZVP            selected for orbital group  2
 Library entry F      S def2-TZVP            selected for orbital group  3
 Library entry F      P def2-TZVP            selected for orbital group  3
 Library entry F      D def2-TZVP            selected for orbital group  3
 Library entry F      F def2-TZVP            selected for orbital group  3


 PROGRAM * SEWARD (Integral evaluation for generally contracted gaussian basis sets)     Author: Roland Lindh, 1990

 Geometry written to block  1 of record 700

 Orientation using atomic masses  
 Molecule type: Asymmetric top
 Rotational constants:       9.6905047      8.4604410     36.3279095 GHz

 Point group  C1  



 ATOMIC COORDINATES

 NR  ATOM    CHARGE       X              Y              Z

   1  C       6.00    0.462958183    0.000002201   -2.410454802
   2  C       6.00   -1.090312792   -0.000000838   -0.016483685
   3  H       1.00    1.688134571    1.664796244   -2.473827651
   4  H       1.00   -0.752387363   -0.000006046   -4.081497504
   5  H       1.00    1.688138892   -1.664807532   -2.473832042
   6  H       1.00   -2.281603594    1.683768977    0.103492889
   7  F       9.00    0.499134571   -0.000000189    2.000930215
   8  H       1.00   -2.281610187   -1.683764313    0.103487100

 Bond lengths in Bohr (Angstrom)

 1-2  2.853725360  1-3  2.067997221  1-4  2.066264384  1-5  2.068012547  2-6  2.066070895
     ( 1.510126427)     ( 1.094337002)     ( 1.093420024)     ( 1.094345112)     ( 1.093317634)

 2-7  2.568326647  2-8  2.066069193
     ( 1.359099932)     ( 1.093316733)

 Bond angles

  1-2-6  111.25707447   1-2-7  108.79014487   1-2-8  111.25716186   2-1-3  110.37568231

  2-1-4  110.99512995   2-1-5  110.37559816   3-1-4  108.88609896   3-1-5  107.22592395

  4-1-5  108.88553498   6-2-7  108.13288069   6-2-8  109.16702467   7-2-8  108.13317273

 NUCLEAR CHARGE:                   26
 NUMBER OF PRIMITIVE AOS:         193
 NUMBER OF SYMMETRY AOS:          178
 NUMBER OF CONTRACTIONS:          123   (  123A   )
 NUMBER OF CORE ORBITALS:           3   (    3A   )
 NUMBER OF VALENCE ORBITALS:       17   (   17A   )


 NUCLEAR REPULSION ENERGY   80.02483055


 Eigenvalues of metric

         1 0.557E-03 0.805E-03 0.214E-02 0.399E-02 0.548E-02 0.573E-02 0.684E-02 0.722E-02


 Contracted 2-electron integrals neglected if value below      1.0D-11
 AO integral compression algorithm  1   Integral accuracy      1.0D-11

     112.722 MB (compressed) written to integral file ( 41.8%)


 NUMBER OF SORTED TWO-ELECTRON INTEGRALS:   29081751.     BUFFER LENGTH:  32768
 NUMBER OF SEGMENTS:   2  SEGMENT LENGTH:   15997996      RECORD LENGTH: 524288

 Memory used in sort:      16.56 MW

 SORT1 READ    33759648. AND WROTE    26040370. INTEGRALS IN     76 RECORDS. CPU TIME:     0.90 SEC, REAL TIME:     1.02 SEC
 SORT2 READ    26040370. AND WROTE    29081751. INTEGRALS IN    430 RECORDS. CPU TIME:     0.59 SEC, REAL TIME:     0.69 SEC

 FILE SIZES:   FILE 1:   143.4 MBYTE,  FILE 4:   318.8 MBYTE,   TOTAL:    462.2 MBYTE

 OPERATOR DM      FOR CENTER  0  COORDINATES:    0.000000    0.000000    0.000000


 **********************************************************************************************************************************
 DATASETS  * FILE   NREC   LENGTH (MB)   RECORD NAMES
              1      19      126.92       500      610      700      900      950      970     1000      129      960     1100   
                                          VAR    BASINP    GEOM    SYMINP    ZMAT    AOBASIS   BASIS     P2S    ABASIS      S 
                                         1400     1410     1200     1210     1080     1600     1650     1300     1700   
                                           T        V       H0       H01     AOSYM     SMH    MOLCAS    ERIS     OPER   

 PROGRAMS   *        TOTAL       INT
 CPU TIMES  *        12.17     11.54
 REAL TIME  *        12.76 SEC
 DISK USED  *       462.59 MB
 **********************************************************************************************************************************

 Density functional group M06=XC-M06
 Functional: XC-M06(via MFM 1.6)                                               Gradient terms: 1
 Use libxcgrid:  F
 Use grid at  1800.2
 

 Exact exchange will be calculated, factor:  0.2700

 Functional: XC-M06                    Factor:  1.0000
 
 Generated new metagrid on record  1800.2 with target accuracy 1.0D-06 and 33162 points in CPU time    0.4
 Computed new grid on record 1800.1 in CPU time    0.5
  101821 words reserved for DFT integration

 PROGRAM * RKS-SCF (Restricted closed shell Kohn-Sham)     Authors: W. Meyer, H.-J. Werner, P.J. Knowles, 1993

 NUMBER OF ELECTRONS:      13+   13-    SPACE SYMMETRY=1    SPIN SYMMETRY: Singlet 
 CONVERGENCE THRESHOLDS:    1.00E-06 (Density)    1.00E-06 (Energy)
 MAX. NUMBER OF ITERATIONS:       60
 INTERPOLATION TYPE:            DIIS
 INTERPOLATION STEPS:              2 (START)      1 (STEP)
 LEVEL SHIFTS:                  0.00 (CLOSED)  0.00 (OPEN) 



 Use fine grid record 1800.2 for energy threshold  1.0D-06
 Orbital guess generated from atomic densities. Full valence occupancy:   13

 Molecular orbital dump at record        2100.2

 Initial occupancy:  13

 ITERATION    DDIFF          GRAD             ENERGY        2-EL.EN.            DIPOLE MOMENTS         DIIS   ORB.
    1      0.000D+00      0.000D+00      -178.95602444    330.042459   -0.52593   -0.00001   -0.75988    0    start
    2      0.000D+00      0.758D-02      -178.94054836    316.179168   -0.15058    0.00001   -0.35145    1    diag
    3      0.951D-02      0.869D-02      -179.03445617    323.570529   -0.37532   -0.00000   -0.58876    2    diag
    4      0.536D-02      0.533D-03      -179.03463570    323.400596   -0.33980   -0.00000   -0.56363    3    diag
    5      0.509D-03      0.305D-03      -179.03470831    323.448421   -0.35183    0.00000   -0.57807    4    diag
    6      0.175D-03      0.918D-04      -179.03471678    323.459244   -0.35249   -0.00000   -0.57664    5    diag
    7      0.586D-04      0.113D-04      -179.03471692    323.455187   -0.35126   -0.00000   -0.57566    6    diag
    8      0.114D-04      0.382D-05      -179.03471693    323.457314   -0.35150   -0.00000   -0.57597    7    diag
    9      0.246D-05      0.140D-05      -179.03471694    323.456992   -0.35156   -0.00000   -0.57594    8    diag
   10      0.745D-06      0.271D-06      -179.03471694    323.457178   -0.35151   -0.00000   -0.57592    0    orth

 Final occupancy:  13

 !RKS STATE  1.1 Energy              -179.034716936088
 Nuclear energy                        80.02483055
 One-electron energy                 -403.66110333
 Two-electron energy                  161.72858883
 SCF exchange energy                  -22.22635631     Factor= 0.2700
 Density functional                   -17.12703298     XC-M06=-17.12703298
 Virial quotient                       -1.00380088
 !RKS STATE  1.1 Dipole moment         -0.35150781    -0.00000001    -0.57592294
 Dipole moment /Debye                  -0.89338521    -0.00000002    -1.46375422

 Orbital energies:

         1.1          2.1          3.1          4.1          5.1          6.1          7.1          8.1          9.1         10.1
    -24.753519   -10.309945   -10.235256    -1.234955    -0.776175    -0.644053    -0.520729    -0.515048    -0.474875    -0.410597

        11.1         12.1         13.1         14.1         15.1
     -0.407743    -0.353292    -0.344508     0.040525     0.073156


 HOMO     13.1    -0.344508 =      -9.3745eV
 LUMO     14.1     0.040525 =       1.1027eV
 LUMO-HOMO         0.385033 =      10.4773eV


 **********************************************************************************************************************************
 DATASETS  * FILE   NREC   LENGTH (MB)   RECORD NAMES
              1      20      127.98       500      610      700      900      950      970     1000      129      960     1100   
                                          VAR    BASINP    GEOM    SYMINP    ZMAT    AOBASIS   BASIS     P2S    ABASIS      S 
                                         1400     1410     1200     1210     1080     1600     1650     1300     1700     1800   
                                           T        V       H0       H01     AOSYM     SMH    MOLCAS    ERIS     OPER     GRID   

              2       5        3.19       700     1000      520     1800     2100   
                                         GEOM     BASIS   MCVARS    GRID      RKS  

 PROGRAMS   *        TOTAL    KS-SCF       INT
 CPU TIMES  *        19.96      7.78     11.54
 REAL TIME  *        20.72 SEC
 DISK USED  *       462.59 MB
 **********************************************************************************************************************************


 PROGRAM * OPT (Geometry optimization)     Authors: F. Eckert and H.-J. Werner


 BFGS update of hessian

 *** Long output written to logfile /scratch/on41/pk8622/Test_Calcs/Molpro/VPT2/fluoroethane_vpt2.log ***


 Geometry optimization using default procedure for command KS-SCF

 Geometry written to block  1 of record 700

 Making model hessian for cartesian coordinates

 Entering Rational Function Geometry Optimization

 ITER.   ENERGY(OLD)    ENERGY(NEW)      DE          GRADMAX     GRADNORM    GRADRMS     STEPMAX     STEPLEN     STEPRMS   CPU-time
   1  -179.03471694  -179.03499947    -0.00028254  0.01475516  0.01989772  0.00110543  0.05555521  0.07022808  0.02482937     72.23
   2  -179.03499947  -179.03505953    -0.00006005  0.00908674  0.00986604  0.00054811  0.01174455  0.02384235  0.00842954    143.48
 Freezing grid
   3  -179.03505953  -179.03506130    -0.00000177  0.00329147  0.00353520  0.00019640  0.00451808  0.00867109  0.00306569    216.01
   4  -179.03506130  -179.03505972     0.00000158  0.00066085  0.00080286  0.00004460  0.00175488  0.00258811  0.00091504    286.78
   5  -179.03505972  -179.03505839     0.00000133  0.00018063  0.00027423  0.00001524  0.00182645  0.00200392  0.00070849    357.66
   6  -179.03505839  -179.03505816     0.00000023  0.00004878  0.00005580  0.00000310  0.00037856  0.00038885  0.00013748    428.07

 END OF GEOMETRY OPTIMIZATION.

 Current geometry (xyz format, in Angstrom)

    8
 KS-SCF000/DEF2-TZVP  ENERGY=-179.03505816
 C          0.2498655290        0.0000000058       -1.2806096467
 C         -0.5700186414        0.0000000056       -0.0249799330
 H          0.8817034150        0.8877732125       -1.3204680995
 H         -0.3897572103       -0.0000005316       -2.1643084431
 H          0.8817040638       -0.8877727656       -1.3204675542
 H         -1.2056577612        0.8902843126        0.0376436903
 F          0.2572649435       -0.0000000014        1.0755665547
 H         -1.2056577306       -0.8902843374        0.0376436410

 **********************************************************************************************************************************

 Geometry written to block  1 of record 700


 **********************************************************************************************************************************
 DATASETS  * FILE   NREC   LENGTH (MB)   RECORD NAMES
              1      20      139.16       500      610      700      900      950      970     1000      129      960     1100   
                                          VAR    BASINP    GEOM    SYMINP    ZMAT    AOBASIS   BASIS     P2S    ABASIS      S 
                                         1400     1410     1200     1210     1080     1600     1650     1300     1700     1800   
                                           T        V       H0       H01     AOSYM     SMH    MOLCAS    ERIS     OPER     GRID   

              2       5        3.19       700     1000      520     1800     2100   
                                         GEOM     BASIS   MCVARS    GRID      RKS  

 PROGRAMS   *        TOTAL      OPTG    KS-SCF       INT
 CPU TIMES  *       448.07    428.07      7.78     11.54
 REAL TIME  *       455.39 SEC
 DISK USED  *       462.59 MB
 **********************************************************************************************************************************


 PROGRAM * HESSIAN

 Computing numerical hessian using default procedure for command KS-SCF

 Symmetry elements for unique displacements: Y  

 Using no symmetry in wavefunction calculations

 Running default procedure: KS-SCF000
 

 Recomputing wavefunction at reference geometry

 Numerically approximating hessian using central gradient differences

 Task list generated. Total number of displacements:     32

   20 tasks completed, CPU=6m 2s Elapsed=6m 5s
 Tasks on processor    0 finished.  CPU=    580.31 sec, Elapsed=    584.10 sec. All tasks on all processors finished.

 KS-SCF hessian saved to record  5300.2

 PROGRAM * FREQUENCIES (Calculation of harmonic vibrational spectra for KS-SCF)


 Permanent Dipole Moment [debye]
   1-  3   -0.909808   -0.000000   -1.587314

 Dipole Moment Norm    1.8295671 [debye]

 Dipole Moment Derivatives [debye/ang]
                   1             2             3             4             5             6             7             8
         1     0.0081004     0.0000000     0.1391897     2.8741819     0.0000000     1.0651237    -0.0002648    -0.4743794
         2    -0.0000001     0.3355204    -0.0000004    -0.0000002     2.0610618     0.0000003    -0.3404045    -0.2769602
         3     0.6259122     0.0000000    -0.4221510     1.1902160     0.0000000     4.5816177     0.2133274     0.0454124
                   9            10            11            12            13            14            15            16
         1     0.0728364    -0.0621197     0.0000000    -0.3131054    -0.0002648     0.4743794     0.0728364    -0.1909683
         2    -0.0608635    -0.0000004     0.3767214    -0.0000002     0.3404045    -0.2769602     0.0608635     0.2924606
         3     0.2033619    -0.4837137     0.0000000    -0.2533862     0.2133274    -0.0454124     0.2033619    -0.0325092
                  17            18            19            20            21            22            23            24
         1     0.6429974     0.1456825    -2.4376769     0.0000000    -1.3280372    -0.1909683    -0.6429974     0.1456825
         2    -0.4591961    -0.2035811     0.0000000    -1.3017314    -0.0000001    -0.2924606    -0.4591961     0.2035811
         3    -0.0626060    -0.1104547    -1.6940439     0.0000000    -4.0919909    -0.0325092     0.0626060    -0.1104547

 Projecting out rotations and translations

   Low Vibration      Wavenumber
        Nr             [1/cm] 
        1                0.00
        2                0.00
        3                0.00
        4                0.00
        5                0.00
        6                0.00

     Vibration        Wavenumber
        Nr             [1/cm] 
        1              332.03
        2              410.43
        3              766.78
        4              903.54
        5             1082.06
        6             1134.34
        7             1185.83
        8             1250.78
        9             1345.64
       10             1393.53
       11             1440.66
       12             1485.40
       13             1516.90
       14             3006.21
       15             3039.68
       16             3053.13
       17             3122.88
       18             3126.55

 FREQUENCIES * CALCULATION OF NORMAL MODES FOR KS-SCF


 Atomic Coordinates

  Nr  Atom  Charge       X              Y              Z

   1   C     6.00    0.472177418    0.000000000   -2.420001505
   2   C     6.00   -1.077179118    0.000000000   -0.047205232
   3   H     1.00    1.666177978    1.677648232   -2.495323064
   4   H     1.00   -0.736534383   -0.000001005   -4.089950207
   5   H     1.00    1.666179203   -1.677647388   -2.495322034
   6   H     1.00   -2.278362969    1.682393524    0.071136265
   7   F     9.00    0.486160285    0.000000000    2.032526217
   8   H     1.00   -2.278362911   -1.682393524    0.071136172

 Gradient norm at reference geometry: 0.16792D-02

 ?WARNING: GRADIENT NORM NOT ZERO!

 Normal Modes

                              1 A         2 A         3 A         4 A         5 A  
 Wavenumbers [cm-1]          332.03      410.43      766.78      903.54     1082.06
 Intensities [km/mol]          0.12        4.91        0.50       13.59       51.17
 Intensities [relative]        0.18        7.26        0.73       20.09       75.67
           CX1             -0.00000    -0.01897     0.00000     0.00862     0.10358
           CY1             -0.01067    -0.00000    -0.03766     0.00000    -0.00000
           CZ1              0.00000    -0.12171    -0.00000     0.15135    -0.05310
           CX2             -0.00000     0.11317    -0.00000     0.08727    -0.03358
           CY2             -0.07423    -0.00000    -0.05020    -0.00000     0.00000
           CZ2             -0.00000    -0.00884     0.00000     0.00177     0.16630
           HX3              0.29319    -0.03583    -0.30657    -0.06121     0.10762
           HY3             -0.19911     0.00143     0.19754     0.03144    -0.00837
           HZ3              0.34287    -0.33152     0.28776    -0.14462    -0.28421
           HX4              0.00000    -0.26093     0.00000    -0.39058     0.00023
           HY4              0.59055     0.00000     0.11115     0.00000     0.00000
           HZ4             -0.00000     0.04510    -0.00000     0.42737     0.01412
           HX5             -0.29319    -0.03583     0.30657    -0.06121     0.10762
           HY5             -0.19911    -0.00143     0.19754    -0.03144     0.00837
           HZ5             -0.34287    -0.33152    -0.28776    -0.14463    -0.28421
           HX6             -0.05576     0.10584     0.33623     0.07341    -0.08861
           HY6             -0.10935    -0.00305     0.21132     0.00755    -0.03102
           HZ6             -0.03873    -0.06561    -0.30432    -0.17390     0.27368
           FX7              0.00000    -0.05308    -0.00000    -0.04114    -0.04624
           FY7              0.05502     0.00000     0.00622     0.00000     0.00000
           FZ7             -0.00000     0.12220     0.00000    -0.08559    -0.07114
           HX8              0.05576     0.10584    -0.33623     0.07341    -0.08861
           HY8             -0.10935     0.00305     0.21132    -0.00755     0.03102
           HZ8              0.03873    -0.06561     0.30432    -0.17390     0.27368

                              6 A         7 A         8 A         9 A        10 A  
 Wavenumbers [cm-1]         1134.34     1185.83     1250.78     1345.64     1393.53
 Intensities [km/mol]         67.62        4.91        3.11       13.82       24.99
 Intensities [relative]      100.00        7.26        4.60       20.44       36.96
           CX1             -0.08999    -0.00000     0.00000     0.04864    -0.07438
           CY1              0.00000    -0.11340    -0.04600     0.00000    -0.00000
           CZ1             -0.03111     0.00000     0.00000    -0.00690     0.12399
           CX2              0.16982     0.00000    -0.00000     0.02553     0.03178
           CY2              0.00000     0.14420    -0.03152    -0.00000     0.00000
           CZ2              0.06937    -0.00000    -0.00000    -0.13046    -0.08181
           HX3             -0.00270    -0.26050    -0.11651    -0.11651     0.09012
           HY3             -0.04163     0.09005     0.04018     0.11257    -0.13201
           HZ3              0.28583     0.22954     0.13148     0.12709    -0.37751
           HX4              0.17667    -0.00000    -0.00000    -0.25367     0.41968
           HY4             -0.00000     0.18925     0.01261    -0.00000     0.00000
           HZ4             -0.20216    -0.00000    -0.00000     0.21037    -0.23075
           HX5             -0.00270     0.26050     0.11651    -0.11651     0.09012
           HY5              0.04163     0.09005     0.04018    -0.11257     0.13201
           HZ5              0.28583    -0.22954    -0.13148     0.12709    -0.37751
           HX6              0.14718    -0.35895     0.21036    -0.06006    -0.00262
           HY6             -0.01695    -0.10895     0.06457    -0.09937    -0.04671
           HZ6              0.12745     0.03688     0.61935     0.51360     0.20123
           FX7             -0.07512    -0.00000     0.00000    -0.01466    -0.00464
           FY7             -0.00000    -0.02749     0.03719     0.00000    -0.00000
           FZ7             -0.05729     0.00000     0.00000     0.00763     0.00430
           HX8              0.14718     0.35895    -0.21036    -0.06006    -0.00262
           HY8              0.01695    -0.10895     0.06457     0.09937     0.04671
           HZ8              0.12745    -0.03688    -0.61935     0.51360     0.20123

                             11 A        12 A        13 A        14 A        15 A  
 Wavenumbers [cm-1]         1440.66     1485.40     1516.90     3006.21     3039.68
 Intensities [km/mol]          4.98        3.67        3.03       43.99       10.81
 Intensities [relative]        7.37        5.42        4.47       65.05       15.99
           CX1              0.00000    -0.04633    -0.01198    -0.00649    -0.02839
           CY1             -0.05045    -0.00000    -0.00000     0.00000     0.00000
           CZ1             -0.00000    -0.01864    -0.00578    -0.00180     0.04091
           CX2             -0.00000     0.02108    -0.07725     0.06334    -0.00029
           CY2             -0.02239    -0.00000    -0.00000    -0.00000    -0.00000
           CZ2              0.00000    -0.01640    -0.02277    -0.00946    -0.00137
           HX3             -0.15610     0.45840     0.22315     0.01584     0.32463
           HY3              0.05319    -0.33860    -0.16015     0.02842     0.47275
           HZ3             -0.45872     0.09673     0.02169    -0.00062    -0.01410
           HX4             -0.00000    -0.26967    -0.14730     0.02645    -0.32328
           HY4              0.68907     0.00000     0.00000     0.00000    -0.00000
           HZ4             -0.00000     0.15501     0.09197     0.02678    -0.44686
           HX5              0.15610     0.45840     0.22315     0.01584     0.32463
           HY5              0.05318     0.33860     0.16015    -0.02842    -0.47275
           HZ5              0.45872     0.09673     0.02169    -0.00062    -0.01410
           HX6              0.05205    -0.25003     0.47021    -0.37594     0.00679
           HY6              0.01026    -0.17605     0.35145     0.57185    -0.01127
           HZ6              0.00817    -0.01228     0.14089     0.03567     0.00113
           FX7             -0.00000     0.00815    -0.00939     0.00089     0.00011
           FY7              0.00272     0.00000    -0.00000     0.00000     0.00000
           FZ7             -0.00000     0.00495    -0.00410     0.00197     0.00010
           HX8             -0.05205    -0.25003     0.47021    -0.37594     0.00679
           HY8              0.01026     0.17605    -0.35145    -0.57185     0.01127
           HZ8             -0.00817    -0.01228     0.14089     0.03567     0.00113

                             16 A        17 A        18 A  
 Wavenumbers [cm-1]         3053.13     3122.88     3126.55
 Intensities [km/mol]         27.74       19.52       24.32
 Intensities [relative]       41.03       28.86       35.96
           CX1              0.00000    -0.07137     0.00000
           CY1              0.01600    -0.00000    -0.08817
           CZ1             -0.00000    -0.05000     0.00000
           CX2             -0.00000    -0.00539     0.00000
           CY2             -0.09086    -0.00000    -0.01689
           CZ2             -0.00000    -0.00051     0.00000
           HX3             -0.07088     0.20636     0.38470
           HY3             -0.09647     0.31405     0.53419
           HZ3              0.00141    -0.02131    -0.02261
           HX4             -0.00000     0.44943    -0.00000
           HY4              0.00335     0.00000    -0.01477
           HZ4             -0.00000     0.64247    -0.00000
           HX5              0.07088     0.20636    -0.38470
           HY5             -0.09647    -0.31405     0.53419
           HZ5             -0.00141    -0.02131     0.02261
           HX6             -0.37686     0.02375    -0.06674
           HY6              0.53586    -0.03320     0.09795
           HZ6              0.04399    -0.00393     0.01097
           FX7              0.00000     0.00023     0.00000
           FY7              0.00049     0.00000     0.00007
           FZ7              0.00000     0.00050    -0.00000
           HX8              0.37686     0.02375     0.06674
           HY8              0.53586     0.03320     0.09795
           HZ8             -0.04399    -0.00393    -0.01097


 Normal Modes of low/zero frequencies

                                  1           2           3           4           5
 Wavenumbers [cm-1]            0.00        0.00        0.00        0.00        0.00
 Intensities [km/mol]          0.00        0.00        0.00        0.00        0.00
 Intensities [relative]        0.00        0.00        0.00        0.00        0.00
           CX1              0.00275     0.00005    -0.00427    -0.01253    -0.00285
           CY1             -0.04239    -0.00404     0.00604     0.10579     0.20766
           CZ1             -0.10437    -0.00190     0.07552     0.04572    -0.04814
           CX2              0.08025    -0.00432     0.06589     0.01569     0.00189
           CY2              0.02742     0.09866    -0.07688     0.16597    -0.02190
           CZ2             -0.05377    -0.00475     0.12133     0.06414    -0.04504
           HX3              0.05585    -0.01131    -0.11303     0.13801    -0.14385
           HY3             -0.08251     0.00055     0.08137     0.00054     0.31106
           HZ3             -0.15645    -0.07981     0.02929     0.08785     0.01980
           HX4             -0.05178     0.00312    -0.05364    -0.03239    -0.00620
           HY4             -0.01538    -0.09207    -0.08160     0.27096     0.17619
           HZ4             -0.06490    -0.00412     0.11126     0.06009    -0.04573
           HX5             -0.05526     0.01168     0.10004    -0.16485     0.13784
           HY5             -0.08251     0.00055     0.08137     0.00054     0.31106
           HZ5             -0.13028     0.08041     0.05116    -0.02481    -0.12086
           HX6              0.13982    -0.01607    -0.03745     0.16896    -0.13912
           HY6              0.06812     0.09608    -0.15238     0.27042    -0.12770
           HZ6             -0.02766    -0.08730     0.14588     0.13492     0.02789
           FX7              0.14817    -0.00815     0.12738     0.04043     0.00605
           FY7             -0.00813     0.20868     0.03596    -0.04498     0.02217
           FZ7             -0.10483    -0.00187     0.07511     0.04555    -0.04817
           HX8              0.02840     0.00699     0.17622    -0.13476     0.14338
           HY8              0.06812     0.09608    -0.15238     0.27042    -0.12770
           HZ8             -0.00142     0.07338     0.16781     0.02194    -0.11317

                                  6
 Wavenumbers [cm-1]            0.00
 Intensities [km/mol]          0.00
 Intensities [relative]        0.00
           CX1              0.21852
           CY1              0.00943
           CZ1              0.02900
           CX2              0.09889
           CY2              0.00736
           CZ2             -0.04912
           HX3              0.22638
           HY3              0.00672
           HZ3              0.09332
           HX4              0.30272
           HY4              0.01645
           HZ4             -0.03194
           HX5              0.21826
           HY5              0.00672
           HZ5              0.08509
           HX6              0.09699
           HY6              0.00998
           HZ6             -0.10555
           FX7             -0.00597
           FY7             -0.00153
           FZ7              0.02971
           HX8              0.08884
           HY8              0.00998
           HZ8             -0.11381


 Frequencies dumped to record   5400.2

 Zero point energy:  0.06742551 [H]    14798.19 [1/CM]      177.03 [KJ/MOL]

 Recomputing wavefunction at initial geometry


 **********************************************************************************************************************************
 DATASETS  * FILE   NREC   LENGTH (MB)   RECORD NAMES
              1      20      137.25       500      610      700      900      950      970     1000      129      960     1100   
                                          VAR    BASINP    GEOM    SYMINP    ZMAT    AOBASIS   BASIS     P2S    ABASIS      S 
                                         1400     1410     1200     1210     1080     1600     1650     1300     1700     1800   
                                           T        V       H0       H01     AOSYM     SMH    MOLCAS    ERIS     OPER     GRID   

              2       9        3.83       700     1000      520     1800     2100      701     5300     5450     5400   
                                         GEOM     BASIS   MCVARS    GRID      RKS     GEOM     HESS     NMOD     FREQ   

 PROGRAMS   *        TOTAL      FREQ    KS-SCF    KS-SCF    KS-SCF    KS-SCF    KS-SCF    KS-SCF    KS-SCF    KS-SCF    KS-SCF
 CPU TIMES  *      1050.94     13.13     16.93     17.05     17.28     17.01     16.63     16.67     17.17     17.09      1.86
 REAL TIME  *      1066.75 SEC
 DISK USED  *       462.59 MB
 **********************************************************************************************************************************

 Density functional group M06=XC-M06
 Functional: XC-M06(via MFM 1.6)                                               Gradient terms: 1
 Use libxcgrid:  F
 Use grid at  1800.2
 

 Exact exchange will be calculated, factor:  0.2700

 Functional: XC-M06                    Factor:  1.0000
 
  101821 words reserved for DFT integration

 PROGRAM * RKS-SCF (Restricted closed shell Kohn-Sham)     Authors: W. Meyer, H.-J. Werner, P.J. Knowles, 1993

 NUMBER OF ELECTRONS:      13+   13-    SPACE SYMMETRY=1    SPIN SYMMETRY: Singlet 
 CONVERGENCE THRESHOLDS:    1.00E-07 (Density)    1.00E-06 (Energy)
 MAX. NUMBER OF ITERATIONS:       60
 INTERPOLATION TYPE:            DIIS
 INTERPOLATION STEPS:              2 (START)      1 (STEP)
 LEVEL SHIFTS:                  0.00 (CLOSED)  0.00 (OPEN) 



 Use fine grid record 1800.2 for energy threshold  1.0D-06
 Orbital guess generated from atomic densities. Full valence occupancy:   13

 Molecular orbital dump at record        2101.2

 Initial occupancy:  13

 ITERATION    DDIFF          GRAD             ENERGY        2-EL.EN.            DIPOLE MOMENTS         DIIS   ORB.
    1      0.000D+00      0.000D+00      -178.95565293    329.486610   -0.54197   -0.00000   -0.82454    0    start
    2      0.000D+00      0.763D-02      -178.94034085    315.576898   -0.14413   -0.00000   -0.38525    1    diag
    3      0.957D-02      0.875D-02      -179.03476924    323.002148   -0.38278   -0.00000   -0.63932    2    diag
    4      0.540D-02      0.560D-03      -179.03496222    322.822748   -0.34620   -0.00000   -0.61073    3    diag
    5      0.516D-03      0.331D-03      -179.03505009    322.872031   -0.35777   -0.00000   -0.62644    4    diag
    6      0.184D-03      0.879D-04      -179.03505793    322.886189   -0.35895   -0.00000   -0.62538    5    diag
    7      0.595D-04      0.127D-04      -179.03505810    322.880497   -0.35775   -0.00000   -0.62423    6    diag
    8      0.123D-04      0.513D-05      -179.03505813    322.883061   -0.35790   -0.00000   -0.62455    7    diag
    9      0.282D-05      0.141D-05      -179.03505813    322.882855   -0.35800   -0.00000   -0.62455    8    diag
   10      0.819D-06      0.253D-06      -179.03505813    322.882925   -0.35797   -0.00000   -0.62454    9    orth
   11      0.223D-06      0.191D-07      -179.03505813    322.882927   -0.35797   -0.00000   -0.62454    9    diag
   12      0.146D-07      0.315D-08      -179.03505813    322.882925   -0.35797   -0.00000   -0.62454    0    orth

 Final occupancy:  13

 !RKS STATE  1.1 Energy              -179.035058132211
 Nuclear energy                        79.71572720
 One-electron energy                 -403.06748441
 Two-electron energy                  161.44146272
 SCF exchange energy                  -22.22282187     Factor= 0.2700
 Density functional                   -17.12476364     XC-M06=-17.12476364
 Virial quotient                       -1.00387036
 !RKS STATE  1.1 Dipole moment         -0.35796858    -0.00000006    -0.62453759
 Dipole moment /Debye                  -0.90980579    -0.00000015    -1.58731226

 Orbital energies:

         1.1          2.1          3.1          4.1          5.1          6.1          7.1          8.1          9.1         10.1
    -24.751311   -10.310750   -10.235291    -1.226923    -0.779967    -0.643120    -0.516901    -0.512283    -0.472413    -0.413134

        11.1         12.1         13.1         14.1         15.1
     -0.406469    -0.356025    -0.344754     0.039493     0.073095


 HOMO     13.1    -0.344754 =      -9.3812eV
 LUMO     14.1     0.039493 =       1.0747eV
 LUMO-HOMO         0.384247 =      10.4559eV


 **********************************************************************************************************************************
 DATASETS  * FILE   NREC   LENGTH (MB)   RECORD NAMES
              1      20      137.25       500      610      700      900      950      970     1000      129      960     1100   
                                          VAR    BASINP    GEOM    SYMINP    ZMAT    AOBASIS   BASIS     P2S    ABASIS      S 
                                         1400     1410     1200     1210     1080     1600     1650     1300     1700     1800   
                                           T        V       H0       H01     AOSYM     SMH    MOLCAS    ERIS     OPER     GRID   

              2      10        6.62       700     1000      520     1800     2100      701     5300     5450     5400     2101   
                                         GEOM     BASIS   MCVARS    GRID      RKS     GEOM     HESS     NMOD     FREQ      RKS  

 PROGRAMS   *        TOTAL    KS-SCF    KS-SCF    KS-SCF    KS-SCF    KS-SCF    KS-SCF    KS-SCF    KS-SCF    KS-SCF    KS-SCF
 CPU TIMES  *      1059.58      8.58     13.13     16.93     17.05     17.28     17.01     16.63     16.67     17.17     17.09
 REAL TIME  *      1075.60 SEC
 DISK USED  *       462.59 MB
 **********************************************************************************************************************************


 PROGRAM * SURF (Surface generation)   Authors: G. Rauhut 2004, T. Hrenar 2005, M. Neff 2012, D. Oschetzki 2013

 Freezing grid

 Reference geometry in SURF calculation

   1  C     6.00    -2.420001505    0.472177418    0.000000003
   2  C     6.00    -0.047205232   -1.077179118    0.000000003
   3  H     1.00    -2.495323064    1.666177978    1.677648236
   4  H     1.00    -4.089950207   -0.736534383   -0.000001001
   5  H     1.00    -2.495322034    1.666179203   -1.677647384
   6  H     1.00     0.071136265   -2.278362969    1.682393527
   7  F     9.00     2.032526217    0.486160285    0.000000003
   8  H     1.00     0.071136172   -2.278362911   -1.682393520


 The phase of the following normal coordinates was changed:
  1  2  4 10 14 15

 Information about detected symmetry elements:

 Detected point group: C1 

 Starting mppx-calculation of energy surfaces:

 Calculating 1D potential

 1D:  18  Points:   6 Conv: 0.00070163 0.00070163
 1D:  17  Points:   6 Conv: 0.00070010 0.00070011
 1D:  16  Points:   6 Conv: 0.00067835 0.00067836
 1D:  15  Points:   6 Conv: 0.00067484 0.00067485
 1D:  14  Points:   6 Conv: 0.00066450 0.00066451
 1D:  13  Points:   6 Conv: 0.00028408 0.00028409
 1D:  12  Points:   6 Conv: 0.00029334 0.00029334
 1D:  11  Points:   6 Conv: 0.00026893 0.00026893
 1D:  10  Points:   6 Conv: 0.00025882 0.00025882
 1D:   9  Points:   6 Conv: 0.00025916 0.00025915
 1D:   8  Points:   6 Conv: 0.00023241 0.00023241
 1D:   7  Points:   6 Conv: 0.00020866 0.00020866
 1D:   6  Points:   6 Conv: 0.00018718 0.00018718
 1D:   5  Points:   6 Conv: 0.00017693 0.00017693
 1D:   4  Points:   6 Conv: 0.00014221 0.00014222
 1D:   3  Points:   6 Conv: 0.00014284 0.00014285
 1D:   2  Points:   6 Conv: 0.00005412 0.00005412
 1D:   1  Points:   6 Conv: 0.00006087 0.00006092

 The determined shift and scalnm parameters are:

 scalnm,mode= 1,sfac=1.000,shift= 0
 scalnm,mode= 2,sfac=1.000,shift= 0
 scalnm,mode= 3,sfac=1.000,shift= 0
 scalnm,mode= 4,sfac=1.000,shift= 0
 scalnm,mode= 5,sfac=1.000,shift= 0
 scalnm,mode= 6,sfac=1.000,shift= 0
 scalnm,mode= 7,sfac=1.000,shift= 0
 scalnm,mode= 8,sfac=1.000,shift= 0
 scalnm,mode= 9,sfac=1.000,shift= 0
 scalnm,mode=10,sfac=1.000,shift= 0
 scalnm,mode=11,sfac=1.000,shift= 0
 scalnm,mode=12,sfac=1.000,shift= 0
 scalnm,mode=13,sfac=1.000,shift= 0
 scalnm,mode=14,sfac=1.000,shift= 0
 scalnm,mode=15,sfac=1.000,shift= 0
 scalnm,mode=16,sfac=1.000,shift= 0
 scalnm,mode=17,sfac=1.000,shift= 0
 scalnm,mode=18,sfac=1.000,shift= 0

 Calculating 2D coupling potential

 2D:  18  17  Points:  16 Conv: 0.00003028 0.00003057
 2D:  18  16  Points:  16 Conv: 0.00000057 0.00000057
 2D:  18  15  Points:  16 Conv: 0.00004312 0.00004364
 2D:  18  14  Points:  16 Conv: 0.00000440 0.00000444
 2D:  18  13  Points:  16 Conv: 0.00000123 0.00000122
 2D:  18  12  Points:  16 Conv: 0.00000335 0.00000336
 2D:  18  11  Points:  16 Conv: 0.00000355 0.00000367
 2D:  18  10  Points:  16 Conv: 0.00000200 0.00000195
 2D:  18   9  Points:  16 Conv: 0.00000172 0.00000171
 2D:  18   8  Points:  16 Conv: 0.00000211 0.00000208
 2D:  18   7  Points:  16 Conv: 0.00000068 0.00000079
 2D:  18   6  Points:  16 Conv: 0.00000080 0.00000083
 2D:  18   5  Points:  16 Conv: 0.00000050 0.00000048
 2D:  18   4  Points:  16 Conv: 0.00000035 0.00000036
 2D:  18   3  Points:  16 Conv: 0.00000587 0.00000621
 2D:  18   2  Points:  16 Conv: 0.00000026 0.00000026
 2D:  18   1  Points:  16 Conv: 0.00001077 0.00001088
 2D:  17  16  Points:  16 Conv: 0.00000211 0.00000212
 2D:  17  15  Points:  16 Conv: 0.00004288 0.00004341
 2D:  17  14  Points:  16 Conv: 0.00000313 0.00000315
 2D:  17  13  Points:  16 Conv: 0.00000210 0.00000203
 2D:  17  12  Points:  16 Conv: 0.00000315 0.00000309
 2D:  17  11  Points:  16 Conv: 0.00000204 0.00000205
 2D:  17  10  Points:  16 Conv: 0.00000435 0.00000455
 2D:  17   9  Points:  16 Conv: 0.00000441 0.00000446
 2D:  17   8  Points:  16 Conv: 0.00000009 0.00000009
 2D:  17   7  Points:  16 Conv: 0.00000033 0.00000033
 2D:  17   6  Points:  16 Conv: 0.00000427 0.00000434
 2D:  17   5  Points:  16 Conv: 0.00000093 0.00000094
 2D:  17   4  Points:  16 Conv: 0.00000731 0.00000740
 2D:  17   3  Points:  16 Conv: 0.00000337 0.00000338
 2D:  17   2  Points:  16 Conv: 0.00000535 0.00000542
 2D:  17   1  Points:  16 Conv: 0.00000503 0.00000499
 2D:  16  15  Points:  16 Conv: 0.00000054 0.00000055
 2D:  16  14  Points:  16 Conv: 0.00005319 0.00005394
 2D:  16  13  Points:  16 Conv: 0.00000409 0.00000415
 2D:  16  12  Points:  16 Conv: 0.00000259 0.00000260
 2D:  16  11  Points:  16 Conv: 0.00000066 0.00000069
 2D:  16  10  Points:  16 Conv: 0.00000082 0.00000079
 2D:  16   9  Points:  16 Conv: 0.00000242 0.00000232
 2D:  16   8  Points:  16 Conv: 0.00000729 0.00000697
 2D:  16   7  Points:  16 Conv: 0.00001121 0.00001141
 2D:  16   6  Points:  16 Conv: 0.00000127 0.00000127
 2D:  16   5  Points:  16 Conv: 0.00000180 0.00000180
 2D:  16   4  Points:  16 Conv: 0.00000044 0.00000046
 2D:  16   3  Points:  16 Conv: 0.00001103 0.00001136
 2D:  16   2  Points:  16 Conv: 0.00000031 0.00000030
 2D:  16   1  Points:  16 Conv: 0.00000204 0.00000217
 2D:  15  14  Points:  16 Conv: 0.00000096 0.00000096
 2D:  15  13  Points:  16 Conv: 0.00000397 0.00000399
 2D:  15  12  Points:  16 Conv: 0.00000721 0.00000718
 2D:  15  11  Points:  16 Conv: 0.00000346 0.00000348
 2D:  15  10  Points:  16 Conv: 0.00000607 0.00000611
 2D:  15   9  Points:  16 Conv: 0.00000107 0.00000108
 2D:  15   8  Points:  16 Conv: 0.00000039 0.00000039
 2D:  15   7  Points:  16 Conv: 0.00000300 0.00000301
 2D:  15   6  Points:  16 Conv: 0.00000220 0.00000222
 2D:  15   5  Points:  16 Conv: 0.00000105 0.00000105
 2D:  15   4  Points:  16 Conv: 0.00000460 0.00000464
 2D:  15   3  Points:  16 Conv: 0.00000630 0.00000633
 2D:  15   2  Points:  16 Conv: 0.00000390 0.00000391
 2D:  15   1  Points:  16 Conv: 0.00002233 0.00002251
 2D:  14  12  Points:  16 Conv: 0.00000895 0.00000888
 2D:  14  11  Points:  16 Conv: 0.00000004 0.00000004
 2D:  14  10  Points:  16 Conv: 0.00000170 0.00000171
 2D:  14   9  Points:  16 Conv: 0.00000643 0.00000648
 2D:  14   8  Points:  16 Conv: 0.00000648 0.00000661
 2D:  14   7  Points:  16 Conv: 0.00000321 0.00000330
 2D:  14   6  Points:  16 Conv: 0.00000173 0.00000174
 2D:  14   5  Points:  16 Conv: 0.00000211 0.00000213
 2D:  14   4  Points:  16 Conv: 0.00000134 0.00000127
 2D:  14   3  Points:  16 Conv: 0.00000814 0.00000824
 2D:  14   2  Points:  16 Conv: 0.00000236 0.00000234
 2D:  14   1  Points:  16 Conv: 0.00000073 0.00000073
 2D:  13  12  Points:  16 Conv: 0.00000495 0.00000443
 2D:  13  11  Points:  16 Conv: 0.00000018 0.00000020
 2D:  13  10  Points:  16 Conv: 0.00000174 0.00000173
 2D:  13   9  Points:  16 Conv: 0.00000559 0.00000542
 2D:  13   8  Points:  16 Conv: 0.00000549 0.00000492
 2D:  13   7  Points:  16 Conv: 0.00000150 0.00000125
 2D:  13   6  Points:  16 Conv: 0.00000233 0.00000226
 2D:  13   5  Points:  16 Conv: 0.00000271 0.00000257
 2D:  13   4  Points:  16 Conv: 0.00000159 0.00000156
 2D:  13   3  Points:  16 Conv: 0.00000145 0.00000127
 2D:  13   2  Points:  16 Conv: 0.00000214 0.00000217
 2D:  13   1  Points:  16 Conv: 0.00000051 0.00000044
 2D:  12  11  Points:  16 Conv: 0.00000024 0.00000027
 2D:  12  10  Points:  16 Conv: 0.00000516 0.00000506
 2D:  12   9  Points:  16 Conv: 0.00000276 0.00000300
 2D:  12   8  Points:  16 Conv: 0.00000138 0.00000128
 2D:  12   7  Points:  16 Conv: 0.00000061 0.00000056
 2D:  12   6  Points:  16 Conv: 0.00000232 0.00000209
 2D:  12   5  Points:  16 Conv: 0.00000447 0.00000446
 2D:  12   4  Points:  16 Conv: 0.00000263 0.00000261
 2D:  12   3  Points:  16 Conv: 0.00000163 0.00000172
 2D:  12   2  Points:  16 Conv: 0.00000131 0.00000127
 2D:  12   1  Points:  16 Conv: 0.00000252 0.00000212
 2D:  11  10  Points:  16 Conv: 0.00000102 0.00000089
 2D:  11   9  Points:  16 Conv: 0.00000022 0.00000021
 2D:  11   8  Points:  16 Conv: 0.00000289 0.00000296
 2D:  11   7  Points:  16 Conv: 0.00000289 0.00000313
 2D:  11   6  Points:  16 Conv: 0.00000105 0.00000098
 2D:  11   5  Points:  16 Conv: 0.00000062 0.00000059
 2D:  11   4  Points:  16 Conv: 0.00000120 0.00000112
 2D:  11   3  Points:  16 Conv: 0.00000525 0.00000563
 2D:  11   2  Points:  16 Conv: 0.00000131 0.00000125
 2D:  11   1  Points:  16 Conv: 0.00000789 0.00000777
 2D:  10   8  Points:  16 Conv: 0.00000368 0.00000348
 2D:  10   7  Points:  16 Conv: 0.00000154 0.00000146
 2D:  10   6  Points:  16 Conv: 0.00000542 0.00000562
 2D:  10   5  Points:  16 Conv: 0.00001322 0.00001316
 2D:  10   4  Points:  16 Conv: 0.00000090 0.00000068
 2D:  10   3  Points:  16 Conv: 0.00000344 0.00000310
 2D:  10   2  Points:  16 Conv: 0.00000406 0.00000453
 2D:  10   1  Points:  16 Conv: 0.00000336 0.00000327
 2D:   9   8  Points:  16 Conv: 0.00000782 0.00000700
 2D:   9   7  Points:  16 Conv: 0.00000100 0.00000087
 2D:   9   6  Points:  16 Conv: 0.00000381 0.00000396
 2D:   9   5  Points:  16 Conv: 0.00001217 0.00001207
 2D:   9   3  Points:  16 Conv: 0.00000329 0.00000268
 2D:   9   2  Points:  16 Conv: 0.00000845 0.00000871
 2D:   9   1  Points:  16 Conv: 0.00000028 0.00000024
 2D:   8   7  Points:  16 Conv: 0.00001039 0.00001070
 2D:   8   6  Points:  16 Conv: 0.00000172 0.00000174
 2D:   8   5  Points:  16 Conv: 0.00000066 0.00000061
 2D:   8   4  Points:  16 Conv: 0.00000388 0.00000374
 2D:   8   2  Points:  16 Conv: 0.00000195 0.00000190
 2D:   8   1  Points:  16 Conv: 0.00000294 0.00000316
 2D:   7   6  Points:  16 Conv: 0.00000079 0.00000077
 2D:   7   5  Points:  16 Conv: 0.00000113 0.00000112
 2D:   7   4  Points:  16 Conv: 0.00000074 0.00000075
 2D:   7   3  Points:  16 Conv: 0.00000183 0.00000131
 2D:   7   2  Points:  16 Conv: 0.00000042 0.00000040
 2D:   7   1  Points:  16 Conv: 0.00001133 0.00001123
 2D:   6   5  Points:  16 Conv: 0.00000519 0.00000505
 2D:   6   4  Points:  16 Conv: 0.00000846 0.00000795
 2D:   6   3  Points:  16 Conv: 0.00000056 0.00000053
 2D:   6   2  Points:  16 Conv: 0.00000868 0.00000842
 2D:   6   1  Points:  16 Conv: 0.00000314 0.00000285
 2D:   5   4  Points:  16 Conv: 0.00000306 0.00000305
 2D:   5   3  Points:  16 Conv: 0.00000255 0.00000248
 2D:   5   2  Points:  16 Conv: 0.00000447 0.00000441
 2D:   5   1  Points:  16 Conv: 0.00000263 0.00000250
 2D:   4   3  Points:  16 Conv: 0.00000042 0.00000042
 2D:   4   1  Points:  16 Conv: 0.00000332 0.00000293
 2D:   3   2  Points:  16 Conv: 0.00000091 0.00000088
 2D:   2   1  Points:  16 Conv: 0.00000329 0.00000298
 2D:  14  13  Points:  36 Conv: 0.00001691 0.00001691
 2D:  10   9  Points:  36 Conv: 0.00000522 0.00000521
 2D:   9   4  Points:  36 Conv: 0.00001268 0.00001267
 2D:   8   3  Points:  36 Conv: 0.00001552 0.00001550
 2D:   4   2  Points:  36 Conv: 0.00000921 0.00000922
 2D:   3   1  Points:  36 Conv: 0.00001098 0.00001097

 Calculating 3D coupling potential

 3D:  18  17  16  Points:    8 Conv: 0.00000947
 3D:  18  17  15  Points:    8 Conv: 0.00000231
 3D:  18  17  14  Points:    8 Conv: 0.00000013
 3D:  18  17  13  Points:    8 Conv: 0.00000006
 3D:  18  17  12  Points:    8 Conv: 0.00000013
 3D:  18  17  11  Points:    8 Conv: 0.00000416
 3D:  18  17  10  Points:    8 Conv: 0.00000006
 3D:  18  17   9  Points:    8 Conv: 0.00000007
 3D:  18  17   8  Points:    8 Conv: 0.00000019
 3D:  18  17   7  Points:    8 Conv: 0.00000117
 3D:  18  17   6  Points:    8 Conv: 0.00000006
 3D:  18  17   5  Points:    8 Conv: 0.00000001
 3D:  18  17   4  Points:    8 Conv: 0.00000005
 3D:  18  17   3  Points:    8 Conv: 0.00000024
 3D:  18  17   2  Points:    8 Conv: 0.00000002
 3D:  18  17   1  Points:    8 Conv: 0.00000079
 3D:  18  16  15  Points:    8 Conv: 0.00001251
 3D:  18  16  14  Points:    8 Conv: 0.00001386
 3D:  18  16  13  Points:    8 Conv: 0.00000153
 3D:  18  16  12  Points:    8 Conv: 0.00000018
 3D:  18  16  11  Points:    8 Conv: 0.00000014
 3D:  18  16  10  Points:    8 Conv: 0.00000034
 3D:  18  16   9  Points:    8 Conv: 0.00000115
 3D:  18  16   8  Points:    8 Conv: 0.00000025
 3D:  18  16   7  Points:    8 Conv: 0.00000004
 3D:  18  16   6  Points:    8 Conv: 0.00000008
 3D:  18  16   5  Points:    8 Conv: 0.00000062
 3D:  18  16   4  Points:    8 Conv: 0.00000011
 3D:  18  16   3  Points:    8 Conv: 0.00000003
 3D:  18  16   2  Points:    8 Conv: 0.00000010
 3D:  18  16   1  Points:    8 Conv: 0.00000040
 3D:  18  15  14  Points:    8 Conv: 0.00000020
 3D:  18  15  13  Points:    8 Conv: 0.00000013
 3D:  18  15  12  Points:    8 Conv: 0.00000031
 3D:  18  15  11  Points:    8 Conv: 0.00000027
 3D:  18  15  10  Points:    8 Conv: 0.00000008
 3D:  18  15   9  Points:    8 Conv: 0.00000008
 3D:  18  15   8  Points:    8 Conv: 0.00000017
 3D:  18  15   7  Points:    8 Conv: 0.00000067
 3D:  18  15   6  Points:    8 Conv: 0.00000021
 3D:  18  15   5  Points:    8 Conv: 0.00000008
 3D:  18  15   4  Points:    8 Conv: 0.00000019
 3D:  18  15   3  Points:    8 Conv: 0.00000016
 3D:  18  15   2  Points:    8 Conv: 0.00000014
 3D:  18  15   1  Points:    8 Conv: 0.00000066
 3D:  18  14  13  Points:    8 Conv: 0.00000001
 3D:  18  14  12  Points:    8 Conv: 0.00000002
 3D:  18  14  11  Points:    8 Conv: 0.00000016
 3D:  18  14  10  Points:    8 Conv: 0.00000000
 3D:  18  14   9  Points:    8 Conv: 0.00000001
 3D:  18  14   8  Points:    8 Conv: 0.00000011
 3D:  18  14   7  Points:    8 Conv: 0.00000027
 3D:  18  14   6  Points:    8 Conv: 0.00000001
 3D:  18  14   5  Points:    8 Conv: 0.00000000
 3D:  18  14   4  Points:    8 Conv: 0.00000000
 3D:  18  14   3  Points:    8 Conv: 0.00000021
 3D:  18  14   2  Points:    8 Conv: 0.00000000
 3D:  18  14   1  Points:    8 Conv: 0.00000016
 3D:  18  13  12  Points:    8 Conv: 0.00000054
 3D:  18  13  11  Points:    8 Conv: 0.00000071
 3D:  18  13  10  Points:    8 Conv: 0.00000017
 3D:  18  13   9  Points:    8 Conv: 0.00000018
 3D:  18  13   8  Points:    8 Conv: 0.00000006
 3D:  18  13   7  Points:    8 Conv: 0.00000299
 3D:  18  13   6  Points:    8 Conv: 0.00000011
 3D:  18  13   5  Points:    8 Conv: 0.00000000
 3D:  18  13   4  Points:    8 Conv: 0.00000010
 3D:  18  13   3  Points:    8 Conv: 0.00000179
 3D:  18  13   2  Points:    8 Conv: 0.00000004
 3D:  18  13   1  Points:    8 Conv: 0.00000425
 3D:  18  12  11  Points:    8 Conv: 0.00000241
 3D:  18  12  10  Points:    8 Conv: 0.00000028
 3D:  18  12   9  Points:    8 Conv: 0.00000036
 3D:  18  12   8  Points:    8 Conv: 0.00000204
 3D:  18  12   7  Points:    8 Conv: 0.00000374
 3D:  18  12   6  Points:    8 Conv: 0.00000030
 3D:  18  12   5  Points:    8 Conv: 0.00000005
 3D:  18  12   4  Points:    8 Conv: 0.00000027
 3D:  18  12   3  Points:    8 Conv: 0.00000717
 3D:  18  12   2  Points:    8 Conv: 0.00000014
 3D:  18  12   1  Points:    8 Conv: 0.00001129
 3D:  18  11  10  Points:    8 Conv: 0.00000285
 3D:  18  11   9  Points:    8 Conv: 0.00000013
 3D:  18  11   8  Points:    8 Conv: 0.00000013
 3D:  18  11   7  Points:    8 Conv: 0.00000020
 3D:  18  11   6  Points:    8 Conv: 0.00000359
 3D:  18  11   5  Points:    8 Conv: 0.00000193
 3D:  18  11   4  Points:    8 Conv: 0.00000449
 3D:  18  11   3  Points:    8 Conv: 0.00000029
 3D:  18  11   2  Points:    8 Conv: 0.00000376
 3D:  18  11   1  Points:    8 Conv: 0.00000119
 3D:  18  10   9  Points:    8 Conv: 0.00000037
 3D:  18  10   8  Points:    8 Conv: 0.00000176
 3D:  18  10   7  Points:    8 Conv: 0.00000486
 3D:  18  10   6  Points:    8 Conv: 0.00000054
 3D:  18  10   5  Points:    8 Conv: 0.00000045
 3D:  18  10   4  Points:    8 Conv: 0.00000057
 3D:  18  10   3  Points:    8 Conv: 0.00000844
 3D:  18  10   2  Points:    8 Conv: 0.00000057
 3D:  18  10   1  Points:    8 Conv: 0.00000463
 3D:  18   9   8  Points:    8 Conv: 0.00000269
 3D:  18   9   7  Points:    8 Conv: 0.00000283
 3D:  18   9   6  Points:    8 Conv: 0.00000011
 3D:  18   9   5  Points:    8 Conv: 0.00000012
 3D:  18   9   4  Points:    8 Conv: 0.00000013
 3D:  18   9   3  Points:    8 Conv: 0.00000234
 3D:  18   9   2  Points:    8 Conv: 0.00000016
 3D:  18   9   1  Points:    8 Conv: 0.00000134
 3D:  18   8   7  Points:    8 Conv: 0.00000030
 3D:  18   8   6  Points:    8 Conv: 0.00000067
 3D:  18   8   5  Points:    8 Conv: 0.00000069
 3D:  18   8   4  Points:    8 Conv: 0.00000178
 3D:  18   8   3  Points:    8 Conv: 0.00000041
 3D:  18   8   2  Points:    8 Conv: 0.00000159
 3D:  18   8   1  Points:    8 Conv: 0.00000006
 3D:  18   7   6  Points:    8 Conv: 0.00000096
 
 3D:  18   7   5  Points:    8 Conv: 0.00000085
 3D:  18   7   4  Points:    8 Conv: 0.00000180
 3D:  18   7   3  Points:    8 Conv: 0.00000086
 3D:  18   7   2  Points:    8 Conv: 0.00000215
 3D:  18   7   1  Points:    8 Conv: 0.00000020
 3D:  18   6   5  Points:    8 Conv: 0.00000030
 3D:  18   6   4  Points:    8 Conv: 0.00000046
 3D:  18   6   3  Points:    8 Conv: 0.00000177
 3D:  18   6   2  Points:    8 Conv: 0.00000041
 3D:  18   6   1  Points:    8 Conv: 0.00000752
 3D:  18   5   4  Points:    8 Conv: 0.00000031
 3D:  18   5   3  Points:    8 Conv: 0.00000266
 3D:  18   5   2  Points:    8 Conv: 0.00000029
 3D:  18   5   1  Points:    8 Conv: 0.00000415
 3D:  18   4   3  Points:    8 Conv: 0.00000259
 3D:  18   4   2  Points:    8 Conv: 0.00000042
 3D:  18   4   1  Points:    8 Conv: 0.00000807
 3D:  18   3   2  Points:    8 Conv: 0.00000350
 3D:  18   3   1  Points:    8 Conv: 0.00000023
 3D:  18   2   1  Points:    8 Conv: 0.00000694
 3D:  17  16  15  Points:    8 Conv: 0.00000008
 3D:  17  16  14  Points:    8 Conv: 0.00000029
 3D:  17  16  13  Points:    8 Conv: 0.00000002
 3D:  17  16  12  Points:    8 Conv: 0.00000000
 3D:  17  16  11  Points:    8 Conv: 0.00000075
 3D:  17  16  10  Points:    8 Conv: 0.00000001
 3D:  17  16   9  Points:    8 Conv: 0.00000001
 3D:  17  16   8  Points:    8 Conv: 0.00000007
 3D:  17  16   7  Points:    8 Conv: 0.00000027
 3D:  17  16   6  Points:    8 Conv: 0.00000000
 3D:  17  16   5  Points:    8 Conv: 0.00000000
 3D:  17  16   4  Points:    8 Conv: 0.00000001
 3D:  17  16   3  Points:    8 Conv: 0.00000005
 3D:  17  16   2  Points:    8 Conv: 0.00000000
 3D:  17  16   1  Points:    8 Conv: 0.00000005
 3D:  17  15  14  Points:    8 Conv: 0.00000426
 3D:  17  15  13  Points:    8 Conv: 0.00000049
 3D:  17  15  12  Points:    8 Conv: 0.00000038
 3D:  17  15  11  Points:    8 Conv: 0.00000046
 3D:  17  15  10  Points:    8 Conv: 0.00000130
 3D:  17  15   9  Points:    8 Conv: 0.00000091
 3D:  17  15   8  Points:    8 Conv: 0.00000007
 3D:  17  15   7  Points:    8 Conv: 0.00000013
 3D:  17  15   6  Points:    8 Conv: 0.00000186
 3D:  17  15   5  Points:    8 Conv: 0.00000028
 3D:  17  15   4  Points:    8 Conv: 0.00000132
 3D:  17  15   3  Points:    8 Conv: 0.00000056
 3D:  17  15   2  Points:    8 Conv: 0.00000085
 3D:  17  15   1  Points:    8 Conv: 0.00000066
 3D:  17  14  13  Points:    8 Conv: 0.00000009
 3D:  17  14  12  Points:    8 Conv: 0.00000020
 3D:  17  14  11  Points:    8 Conv: 0.00000009
 3D:  17  14  10  Points:    8 Conv: 0.00000016
 3D:  17  14   9  Points:    8 Conv: 0.00000012
 3D:  17  14   8  Points:    8 Conv: 0.00000009
 3D:  17  14   7  Points:    8 Conv: 0.00000001
 3D:  17  14   6  Points:    8 Conv: 0.00000019
 3D:  17  14   5  Points:    8 Conv: 0.00000013
 3D:  17  14   4  Points:    8 Conv: 0.00000020
 3D:  17  14   3  Points:    8 Conv: 0.00000004
 3D:  17  14   2  Points:    8 Conv: 0.00000012
 3D:  17  14   1  Points:    8 Conv: 0.00000018
 3D:  17  13  12  Points:    8 Conv: 0.00000122
 3D:  17  13  11  Points:    8 Conv: 0.00000004
 3D:  17  13  10  Points:    8 Conv: 0.00000142
 3D:  17  13   9  Points:    8 Conv: 0.00000101
 3D:  17  13   8  Points:    8 Conv: 0.00000002
 3D:  17  13   7  Points:    8 Conv: 0.00000002
 3D:  17  13   6  Points:    8 Conv: 0.00000128
 3D:  17  13   5  Points:    8 Conv: 0.00000074
 3D:  17  13   4  Points:    8 Conv: 0.00000140
 3D:  17  13   3  Points:    8 Conv: 0.00000002
 3D:  17  13   2  Points:    8 Conv: 0.00000137
 3D:  17  13   1  Points:    8 Conv: 0.00000019
 3D:  17  12  11  Points:    8 Conv: 0.00000010
 3D:  17  12  10  Points:    8 Conv: 0.00000215
 3D:  17  12   9  Points:    8 Conv: 0.00000202
 3D:  17  12   8  Points:    8 Conv: 0.00000000
 3D:  17  12   7  Points:    8 Conv: 0.00000003
 3D:  17  12   6  Points:    8 Conv: 0.00000264
 3D:  17  12   5  Points:    8 Conv: 0.00000140
 3D:  17  12   4  Points:    8 Conv: 0.00000333
 3D:  17  12   3  Points:    8 Conv: 0.00000005
 3D:  17  12   2  Points:    8 Conv: 0.00000281
 3D:  17  12   1  Points:    8 Conv: 0.00000041
 3D:  17  11  10  Points:    8 Conv: 0.00000016
 3D:  17  11   9  Points:    8 Conv: 0.00000008
 3D:  17  11   8  Points:    8 Conv: 0.00000124
 3D:  17  11   7  Points:    8 Conv: 0.00000384
 3D:  17  11   6  Points:    8 Conv: 0.00000002
 3D:  17  11   5  Points:    8 Conv: 0.00000000
 3D:  17  11   4  Points:    8 Conv: 0.00000010
 3D:  17  11   3  Points:    8 Conv: 0.00000311
 3D:  17  11   2  Points:    8 Conv: 0.00000010
 3D:  17  11   1  Points:    8 Conv: 0.00001791
 3D:  17  10   9  Points:    8 Conv: 0.00000148
 3D:  17  10   8  Points:    8 Conv: 0.00000000
 3D:  17  10   7  Points:    8 Conv: 0.00000007
 3D:  17  10   6  Points:    8 Conv: 0.00000549
 3D:  17  10   5  Points:    8 Conv: 0.00000325
 3D:  17  10   4  Points:    8 Conv: 0.00000790
 3D:  17  10   3  Points:    8 Conv: 0.00000009
 3D:  17  10   2  Points:    8 Conv: 0.00000724
 3D:  17  10   1  Points:    8 Conv: 0.00000032
 3D:  17   9   8  Points:    8 Conv: 0.00000003
 3D:  17   9   7  Points:    8 Conv: 0.00000004
 3D:  17   9   6  Points:    8 Conv: 0.00000186
 3D:  17   9   5  Points:    8 Conv: 0.00000134
 3D:  17   9   4  Points:    8 Conv: 0.00000313
 3D:  17   9   3  Points:    8 Conv: 0.00000003
 3D:  17   9   2  Points:    8 Conv: 0.00000337
 3D:  17   9   1  Points:    8 Conv: 0.00000011
 3D:  17   8   7  Points:    8 Conv: 0.00000102
 3D:  17   8   6  Points:    8 Conv: 0.00000000
 3D:  17   8   5  Points:    8 Conv: 0.00000001
 3D:  17   8   4  Points:    8 Conv: 0.00000002
 
 3D:  17   8   3  Points:    8 Conv: 0.00000203
 3D:  17   8   2  Points:    8 Conv: 0.00000001
 3D:  17   8   1  Points:    8 Conv: 0.00000109
 3D:  17   7   6  Points:    8 Conv: 0.00000004
 3D:  17   7   5  Points:    8 Conv: 0.00000005
 3D:  17   7   4  Points:    8 Conv: 0.00000003
 3D:  17   7   3  Points:    8 Conv: 0.00000357
 3D:  17   7   2  Points:    8 Conv: 0.00000003
 3D:  17   7   1  Points:    8 Conv: 0.00000716
 3D:  17   6   5  Points:    8 Conv: 0.00000021
 3D:  17   6   4  Points:    8 Conv: 0.00000066
 3D:  17   6   3  Points:    8 Conv: 0.00000008
 3D:  17   6   2  Points:    8 Conv: 0.00000098
 3D:  17   6   1  Points:    8 Conv: 0.00000009
 3D:  17   5   4  Points:    8 Conv: 0.00000028
 3D:  17   5   3  Points:    8 Conv: 0.00000006
 3D:  17   5   2  Points:    8 Conv: 0.00000024
 3D:  17   5   1  Points:    8 Conv: 0.00000006
 3D:  17   4   3  Points:    8 Conv: 0.00000008
 3D:  17   4   2  Points:    8 Conv: 0.00000281
 3D:  17   4   1  Points:    8 Conv: 0.00000004
 3D:  17   3   2  Points:    8 Conv: 0.00000007
 3D:  17   3   1  Points:    8 Conv: 0.00000501
 3D:  17   2   1  Points:    8 Conv: 0.00000005
 3D:  16  15  14  Points:    8 Conv: 0.00000009
 3D:  16  15  13  Points:    8 Conv: 0.00000001
 3D:  16  15  12  Points:    8 Conv: 0.00000001
 3D:  16  15  11  Points:    8 Conv: 0.00000003
 3D:  16  15  10  Points:    8 Conv: 0.00000000
 3D:  16  15   9  Points:    8 Conv: 0.00000001
 3D:  16  15   8  Points:    8 Conv: 0.00000001
 3D:  16  15   7  Points:    8 Conv: 0.00000029
 3D:  16  15   6  Points:    8 Conv: 0.00000001
 3D:  16  15   5  Points:    8 Conv: 0.00000000
 3D:  16  15   4  Points:    8 Conv: 0.00000001
 3D:  16  15   3  Points:    8 Conv: 0.00000007
 3D:  16  15   2  Points:    8 Conv: 0.00000000
 3D:  16  15   1  Points:    8 Conv: 0.00000009
 3D:  16  14  13  Points:    8 Conv: 0.00000038
 3D:  16  14  12  Points:    8 Conv: 0.00000019
 3D:  16  14  11  Points:    8 Conv: 0.00000039
 3D:  16  14  10  Points:    8 Conv: 0.00000009
 3D:  16  14   9  Points:    8 Conv: 0.00000016
 3D:  16  14   8  Points:    8 Conv: 0.00000026
 3D:  16  14   7  Points:    8 Conv: 0.00000008
 3D:  16  14   6  Points:    8 Conv: 0.00000004
 3D:  16  14   5  Points:    8 Conv: 0.00000011
 3D:  16  14   4  Points:    8 Conv: 0.00000013
 3D:  16  14   3  Points:    8 Conv: 0.00000051
 3D:  16  14   2  Points:    8 Conv: 0.00000002
 3D:  16  14   1  Points:    8 Conv: 0.00000035
 3D:  16  13  12  Points:    8 Conv: 0.00000063
 3D:  16  13  11  Points:    8 Conv: 0.00000086
 3D:  16  13  10  Points:    8 Conv: 0.00000003
 3D:  16  13   9  Points:    8 Conv: 0.00000005
 3D:  16  13   8  Points:    8 Conv: 0.00000440
 3D:  16  13   7  Points:    8 Conv: 0.00000547
 3D:  16  13   6  Points:    8 Conv: 0.00000004
 3D:  16  13   5  Points:    8 Conv: 0.00000009
 3D:  16  13   4  Points:    8 Conv: 0.00000013
 3D:  16  13   3  Points:    8 Conv: 0.00000679
 3D:  16  13   2  Points:    8 Conv: 0.00000007
 3D:  16  13   1  Points:    8 Conv: 0.00000269
 3D:  16  12  11  Points:    8 Conv: 0.00000001
 3D:  16  12  10  Points:    8 Conv: 0.00000008
 3D:  16  12   9  Points:    8 Conv: 0.00000014
 3D:  16  12   8  Points:    8 Conv: 0.00000058
 3D:  16  12   7  Points:    8 Conv: 0.00000358
 3D:  16  12   6  Points:    8 Conv: 0.00000005
 3D:  16  12   5  Points:    8 Conv: 0.00000007
 3D:  16  12   4  Points:    8 Conv: 0.00000000
 3D:  16  12   3  Points:    8 Conv: 0.00000273
 3D:  16  12   2  Points:    8 Conv: 0.00000001
 3D:  16  12   1  Points:    8 Conv: 0.00000104
 3D:  16  11  10  Points:    8 Conv: 0.00000044
 3D:  16  11   9  Points:    8 Conv: 0.00000001
 3D:  16  11   8  Points:    8 Conv: 0.00000006
 3D:  16  11   7  Points:    8 Conv: 0.00000009
 3D:  16  11   6  Points:    8 Conv: 0.00000049
 3D:  16  11   5  Points:    8 Conv: 0.00000044
 3D:  16  11   4  Points:    8 Conv: 0.00000085
 3D:  16  11   3  Points:    8 Conv: 0.00000009
 3D:  16  11   2  Points:    8 Conv: 0.00000069
 3D:  16  11   1  Points:    8 Conv: 0.00000007
 3D:  16  10   9  Points:    8 Conv: 0.00000062
 3D:  16  10   8  Points:    8 Conv: 0.00000409
 3D:  16  10   7  Points:    8 Conv: 0.00000212
 3D:  16  10   6  Points:    8 Conv: 0.00000004
 3D:  16  10   5  Points:    8 Conv: 0.00000013
 3D:  16  10   4  Points:    8 Conv: 0.00000017
 3D:  16  10   3  Points:    8 Conv: 0.00000230
 3D:  16  10   2  Points:    8 Conv: 0.00000006
 3D:  16  10   1  Points:    8 Conv: 0.00000036
 3D:  16   9   8  Points:    8 Conv: 0.00000771
 3D:  16   9   7  Points:    8 Conv: 0.00000139
 3D:  16   9   6  Points:    8 Conv: 0.00000014
 3D:  16   9   5  Points:    8 Conv: 0.00000025
 3D:  16   9   4  Points:    8 Conv: 0.00000044
 3D:  16   9   3  Points:    8 Conv: 0.00000825
 3D:  16   9   2  Points:    8 Conv: 0.00000019
 3D:  16   9   1  Points:    8 Conv: 0.00000070
 3D:  16   8   7  Points:    8 Conv: 0.00000028
 3D:  16   8   6  Points:    8 Conv: 0.00000022
 3D:  16   8   5  Points:    8 Conv: 0.00000017
 3D:  16   8   4  Points:    8 Conv: 0.00000313
 3D:  16   8   3  Points:    8 Conv: 0.00000040
 3D:  16   8   2  Points:    8 Conv: 0.00000137
 3D:  16   8   1  Points:    8 Conv: 0.00000024
 3D:  16   7   6  Points:    8 Conv: 0.00000115
 3D:  16   7   5  Points:    8 Conv: 0.00000070
 3D:  16   7   4  Points:    8 Conv: 0.00000085
 3D:  16   7   3  Points:    8 Conv: 0.00000079
 3D:  16   7   2  Points:    8 Conv: 0.00000059
 3D:  16   7   1  Points:    8 Conv: 0.00000015
 3D:  16   6   5  Points:    8 Conv: 0.00000002
 3D:  16   6   4  Points:    8 Conv: 0.00000005
 
 3D:  16   6   3  Points:    8 Conv: 0.00000176
 3D:  16   6   2  Points:    8 Conv: 0.00000003
 3D:  16   6   1  Points:    8 Conv: 0.00000140
 3D:  16   5   4  Points:    8 Conv: 0.00000006
 3D:  16   5   3  Points:    8 Conv: 0.00000107
 3D:  16   5   2  Points:    8 Conv: 0.00000002
 3D:  16   5   1  Points:    8 Conv: 0.00000068
 3D:  16   4   3  Points:    8 Conv: 0.00000221
 3D:  16   4   2  Points:    8 Conv: 0.00000007
 3D:  16   4   1  Points:    8 Conv: 0.00000178
 3D:  16   3   2  Points:    8 Conv: 0.00000138
 3D:  16   3   1  Points:    8 Conv: 0.00000012
 3D:  16   2   1  Points:    8 Conv: 0.00000144
 3D:  15  14  13  Points:    8 Conv: 0.00000002
 3D:  15  14  12  Points:    8 Conv: 0.00000005
 3D:  15  14  11  Points:    8 Conv: 0.00000001
 3D:  15  14  10  Points:    8 Conv: 0.00000004
 3D:  15  14   9  Points:    8 Conv: 0.00000014
 3D:  15  14   8  Points:    8 Conv: 0.00000003
 3D:  15  14   7  Points:    8 Conv: 0.00000001
 3D:  15  14   6  Points:    8 Conv: 0.00000015
 3D:  15  14   5  Points:    8 Conv: 0.00000008
 3D:  15  14   4  Points:    8 Conv: 0.00000014
 3D:  15  14   3  Points:    8 Conv: 0.00000003
 3D:  15  14   2  Points:    8 Conv: 0.00000003
 3D:  15  14   1  Points:    8 Conv: 0.00000002
 3D:  15  13  12  Points:    8 Conv: 0.00000188
 3D:  15  13  11  Points:    8 Conv: 0.00000007
 3D:  15  13  10  Points:    8 Conv: 0.00000004
 3D:  15  13   9  Points:    8 Conv: 0.00000040
 3D:  15  13   8  Points:    8 Conv: 0.00000001
 3D:  15  13   7  Points:    8 Conv: 0.00000001
 3D:  15  13   6  Points:    8 Conv: 0.00000021
 3D:  15  13   5  Points:    8 Conv: 0.00000008
 3D:  15  13   4  Points:    8 Conv: 0.00000028
 3D:  15  13   3  Points:    8 Conv: 0.00000002
 3D:  15  13   2  Points:    8 Conv: 0.00000058
 3D:  15  13   1  Points:    8 Conv: 0.00000006
 3D:  15  12  11  Points:    8 Conv: 0.00000013
 3D:  15  12  10  Points:    8 Conv: 0.00000018
 3D:  15  12   9  Points:    8 Conv: 0.00000082
 3D:  15  12   8  Points:    8 Conv: 0.00000001
 3D:  15  12   7  Points:    8 Conv: 0.00000004
 3D:  15  12   6  Points:    8 Conv: 0.00000072
 3D:  15  12   5  Points:    8 Conv: 0.00000011
 3D:  15  12   4  Points:    8 Conv: 0.00000015
 3D:  15  12   3  Points:    8 Conv: 0.00000007
 3D:  15  12   2  Points:    8 Conv: 0.00000053
 3D:  15  12   1  Points:    8 Conv: 0.00000014
 3D:  15  11  10  Points:    8 Conv: 0.00000009
 3D:  15  11   9  Points:    8 Conv: 0.00000004
 3D:  15  11   8  Points:    8 Conv: 0.00000004
 3D:  15  11   7  Points:    8 Conv: 0.00000142
 3D:  15  11   6  Points:    8 Conv: 0.00000005
 3D:  15  11   5  Points:    8 Conv: 0.00000003
 3D:  15  11   4  Points:    8 Conv: 0.00000010
 3D:  15  11   3  Points:    8 Conv: 0.00000015
 3D:  15  11   2  Points:    8 Conv: 0.00000010
 3D:  15  11   1  Points:    8 Conv: 0.00000005
 3D:  15  10   9  Points:    8 Conv: 0.00000381
 3D:  15  10   8  Points:    8 Conv: 0.00000000
 3D:  15  10   7  Points:    8 Conv: 0.00000003
 3D:  15  10   6  Points:    8 Conv: 0.00000062
 3D:  15  10   5  Points:    8 Conv: 0.00000063
 3D:  15  10   4  Points:    8 Conv: 0.00000039
 3D:  15  10   3  Points:    8 Conv: 0.00000010
 3D:  15  10   2  Points:    8 Conv: 0.00000023
 3D:  15  10   1  Points:    8 Conv: 0.00000012
 3D:  15   9   8  Points:    8 Conv: 0.00000003
 3D:  15   9   7  Points:    8 Conv: 0.00000002
 3D:  15   9   6  Points:    8 Conv: 0.00000070
 3D:  15   9   5  Points:    8 Conv: 0.00000017
 3D:  15   9   4  Points:    8 Conv: 0.00000150
 3D:  15   9   3  Points:    8 Conv: 0.00000003
 3D:  15   9   2  Points:    8 Conv: 0.00000112
 3D:  15   9   1  Points:    8 Conv: 0.00000011
 3D:  15   8   7  Points:    8 Conv: 0.00000212
 3D:  15   8   6  Points:    8 Conv: 0.00000001
 3D:  15   8   5  Points:    8 Conv: 0.00000001
 3D:  15   8   4  Points:    8 Conv: 0.00000002
 3D:  15   8   3  Points:    8 Conv: 0.00000315
 3D:  15   8   2  Points:    8 Conv: 0.00000002
 3D:  15   8   1  Points:    8 Conv: 0.00000043
 3D:  15   7   6  Points:    8 Conv: 0.00000005
 3D:  15   7   5  Points:    8 Conv: 0.00000005
 3D:  15   7   4  Points:    8 Conv: 0.00000005
 3D:  15   7   3  Points:    8 Conv: 0.00000671
 3D:  15   7   2  Points:    8 Conv: 0.00000006
 3D:  15   7   1  Points:    8 Conv: 0.00000224
 3D:  15   6   5  Points:    8 Conv: 0.00000222
 3D:  15   6   4  Points:    8 Conv: 0.00000483
 3D:  15   6   3  Points:    8 Conv: 0.00000009
 3D:  15   6   2  Points:    8 Conv: 0.00000459
 3D:  15   6   1  Points:    8 Conv: 0.00000015
 3D:  15   5   4  Points:    8 Conv: 0.00000271
 3D:  15   5   3  Points:    8 Conv: 0.00000007
 3D:  15   5   2  Points:    8 Conv: 0.00000278
 3D:  15   5   1  Points:    8 Conv: 0.00000007
 3D:  15   4   3  Points:    8 Conv: 0.00000010
 3D:  15   4   2  Points:    8 Conv: 0.00000633
 3D:  15   4   1  Points:    8 Conv: 0.00000022
 3D:  15   3   2  Points:    8 Conv: 0.00000009
 3D:  15   3   1  Points:    8 Conv: 0.00000020
 3D:  15   2   1  Points:    8 Conv: 0.00000017
 3D:  14  13  12  Points:    8 Conv: 0.00000186
 3D:  14  13  11  Points:    8 Conv: 0.00000000
 3D:  14  13  10  Points:    8 Conv: 0.00000042
 3D:  14  13   9  Points:    8 Conv: 0.00000133
 3D:  14  13   8  Points:    8 Conv: 0.00000044
 3D:  14  13   7  Points:    8 Conv: 0.00000014
 3D:  14  13   6  Points:    8 Conv: 0.00000098
 3D:  14  13   5  Points:    8 Conv: 0.00000024
 3D:  14  13   4  Points:    8 Conv: 0.00000133
 3D:  14  13   3  Points:    8 Conv: 0.00000017
 3D:  14  13   2  Points:    8 Conv: 0.00000082
 3D:  14  13   1  Points:    8 Conv: 0.00000002
 
 3D:  14  12  11  Points:    8 Conv: 0.00000001
 3D:  14  12  10  Points:    8 Conv: 0.00000051
 3D:  14  12   9  Points:    8 Conv: 0.00000045
 3D:  14  12   8  Points:    8 Conv: 0.00000015
 3D:  14  12   7  Points:    8 Conv: 0.00000005
 3D:  14  12   6  Points:    8 Conv: 0.00000073
 3D:  14  12   5  Points:    8 Conv: 0.00000011
 3D:  14  12   4  Points:    8 Conv: 0.00000006
 3D:  14  12   3  Points:    8 Conv: 0.00000006
 3D:  14  12   2  Points:    8 Conv: 0.00000009
 3D:  14  12   1  Points:    8 Conv: 0.00000003
 3D:  14  11  10  Points:    8 Conv: 0.00000000
 3D:  14  11   9  Points:    8 Conv: 0.00000001
 3D:  14  11   8  Points:    8 Conv: 0.00000042
 3D:  14  11   7  Points:    8 Conv: 0.00000086
 3D:  14  11   6  Points:    8 Conv: 0.00000000
 3D:  14  11   5  Points:    8 Conv: 0.00000000
 3D:  14  11   4  Points:    8 Conv: 0.00000001
 3D:  14  11   3  Points:    8 Conv: 0.00000052
 3D:  14  11   2  Points:    8 Conv: 0.00000001
 3D:  14  11   1  Points:    8 Conv: 0.00000120
 3D:  14  10   9  Points:    8 Conv: 0.00000471
 3D:  14  10   8  Points:    8 Conv: 0.00000029
 3D:  14  10   7  Points:    8 Conv: 0.00000004
 3D:  14  10   6  Points:    8 Conv: 0.00000010
 3D:  14  10   5  Points:    8 Conv: 0.00000029
 3D:  14  10   4  Points:    8 Conv: 0.00000083
 3D:  14  10   3  Points:    8 Conv: 0.00000014
 3D:  14  10   2  Points:    8 Conv: 0.00000027
 3D:  14  10   1  Points:    8 Conv: 0.00000003
 3D:  14   9   8  Points:    8 Conv: 0.00000060
 3D:  14   9   7  Points:    8 Conv: 0.00000008
 3D:  14   9   6  Points:    8 Conv: 0.00000065
 3D:  14   9   5  Points:    8 Conv: 0.00000033
 3D:  14   9   4  Points:    8 Conv: 0.00000323
 3D:  14   9   3  Points:    8 Conv: 0.00000023
 3D:  14   9   2  Points:    8 Conv: 0.00000156
 3D:  14   9   1  Points:    8 Conv: 0.00000001
 3D:  14   8   7  Points:    8 Conv: 0.00000221
 3D:  14   8   6  Points:    8 Conv: 0.00000007
 3D:  14   8   5  Points:    8 Conv: 0.00000004
 3D:  14   8   4  Points:    8 Conv: 0.00000032
 3D:  14   8   3  Points:    8 Conv: 0.00000248
 3D:  14   8   2  Points:    8 Conv: 0.00000013
 3D:  14   8   1  Points:    8 Conv: 0.00000219
 3D:  14   7   6  Points:    8 Conv: 0.00000001
 3D:  14   7   5  Points:    8 Conv: 0.00000001
 3D:  14   7   4  Points:    8 Conv: 0.00000006
 3D:  14   7   3  Points:    8 Conv: 0.00000651
 3D:  14   7   2  Points:    8 Conv: 0.00000001
 3D:  14   7   1  Points:    8 Conv: 0.00000124
 3D:  14   6   5  Points:    8 Conv: 0.00000014
 3D:  14   6   4  Points:    8 Conv: 0.00000060
 3D:  14   6   3  Points:    8 Conv: 0.00000002
 3D:  14   6   2  Points:    8 Conv: 0.00000026
 3D:  14   6   1  Points:    8 Conv: 0.00000000
 3D:  14   5   4  Points:    8 Conv: 0.00000054
 3D:  14   5   3  Points:    8 Conv: 0.00000005
 3D:  14   5   2  Points:    8 Conv: 0.00000010
 3D:  14   5   1  Points:    8 Conv: 0.00000000
 3D:  14   4   3  Points:    8 Conv: 0.00000009
 3D:  14   4   2  Points:    8 Conv: 0.00000038
 3D:  14   4   1  Points:    8 Conv: 0.00000000
 3D:  14   3   2  Points:    8 Conv: 0.00000002
 3D:  14   3   1  Points:    8 Conv: 0.00000126
 3D:  14   2   1  Points:    8 Conv: 0.00000000
 3D:  13  12  11  Points:    8 Conv: 0.00000013
 3D:  13  12  10  Points:    8 Conv: 0.00000070
 3D:  13  12   9  Points:    8 Conv: 0.00000102
 3D:  13  12   8  Points:    8 Conv: 0.00000036
 3D:  13  12   7  Points:    8 Conv: 0.00000032
 3D:  13  12   6  Points:    8 Conv: 0.00000060
 3D:  13  12   5  Points:    8 Conv: 0.00000058
 3D:  13  12   4  Points:    8 Conv: 0.00000135
 3D:  13  12   3  Points:    8 Conv: 0.00000032
 3D:  13  12   2  Points:    8 Conv: 0.00000060
 3D:  13  12   1  Points:    8 Conv: 0.00000064
 3D:  13  11  10  Points:    8 Conv: 0.00000005
 3D:  13  11   9  Points:    8 Conv: 0.00000000
 3D:  13  11   8  Points:    8 Conv: 0.00000057
 3D:  13  11   7  Points:    8 Conv: 0.00000064
 3D:  13  11   6  Points:    8 Conv: 0.00000002
 3D:  13  11   5  Points:    8 Conv: 0.00000001
 3D:  13  11   4  Points:    8 Conv: 0.00000001
 3D:  13  11   3  Points:    8 Conv: 0.00000040
 3D:  13  11   2  Points:    8 Conv: 0.00000001
 3D:  13  11   1  Points:    8 Conv: 0.00000052
 3D:  13  10   9  Points:    8 Conv: 0.00000224
 3D:  13  10   8  Points:    8 Conv: 0.00000025
 3D:  13  10   7  Points:    8 Conv: 0.00000002
 3D:  13  10   6  Points:    8 Conv: 0.00000021
 3D:  13  10   5  Points:    8 Conv: 0.00000039
 3D:  13  10   4  Points:    8 Conv: 0.00000101
 3D:  13  10   3  Points:    8 Conv: 0.00000006
 3D:  13  10   2  Points:    8 Conv: 0.00000057
 3D:  13  10   1  Points:    8 Conv: 0.00000003
 3D:  13   9   8  Points:    8 Conv: 0.00000057
 3D:  13   9   7  Points:    8 Conv: 0.00000032
 3D:  13   9   6  Points:    8 Conv: 0.00000034
 3D:  13   9   5  Points:    8 Conv: 0.00000058
 3D:  13   9   4  Points:    8 Conv: 0.00000228
 3D:  13   9   3  Points:    8 Conv: 0.00000045
 3D:  13   9   2  Points:    8 Conv: 0.00000100
 3D:  13   9   1  Points:    8 Conv: 0.00000015
 3D:  13   8   7  Points:    8 Conv: 0.00000343
 3D:  13   8   6  Points:    8 Conv: 0.00000003
 3D:  13   8   5  Points:    8 Conv: 0.00000005
 3D:  13   8   4  Points:    8 Conv: 0.00000024
 3D:  13   8   3  Points:    8 Conv: 0.00000244
 3D:  13   8   2  Points:    8 Conv: 0.00000009
 3D:  13   8   1  Points:    8 Conv: 0.00000148
 3D:  13   7   6  Points:    8 Conv: 0.00000006
 3D:  13   7   5  Points:    8 Conv: 0.00000010
 3D:  13   7   4  Points:    8 Conv: 0.00000002
 3D:  13   7   3  Points:    8 Conv: 0.00000088
 3D:  13   7   2  Points:    8 Conv: 0.00000002
 
 3D:  13   7   1  Points:    8 Conv: 0.00000188
 3D:  13   6   5  Points:    8 Conv: 0.00000032
 3D:  13   6   4  Points:    8 Conv: 0.00000096
 3D:  13   6   3  Points:    8 Conv: 0.00000004
 3D:  13   6   2  Points:    8 Conv: 0.00000016
 3D:  13   6   1  Points:    8 Conv: 0.00000021
 3D:  13   5   4  Points:    8 Conv: 0.00000009
 3D:  13   5   3  Points:    8 Conv: 0.00000011
 3D:  13   5   2  Points:    8 Conv: 0.00000037
 3D:  13   5   1  Points:    8 Conv: 0.00000007
 3D:  13   4   3  Points:    8 Conv: 0.00000004
 3D:  13   4   2  Points:    8 Conv: 0.00000020
 3D:  13   4   1  Points:    8 Conv: 0.00000017
 3D:  13   3   2  Points:    8 Conv: 0.00000001
 3D:  13   3   1  Points:    8 Conv: 0.00000101
 3D:  13   2   1  Points:    8 Conv: 0.00000010
 3D:  12  11  10  Points:    8 Conv: 0.00000012
 3D:  12  11   9  Points:    8 Conv: 0.00000001
 3D:  12  11   8  Points:    8 Conv: 0.00000032
 3D:  12  11   7  Points:    8 Conv: 0.00000011
 3D:  12  11   6  Points:    8 Conv: 0.00000008
 3D:  12  11   5  Points:    8 Conv: 0.00000003
 3D:  12  11   4  Points:    8 Conv: 0.00000006
 3D:  12  11   3  Points:    8 Conv: 0.00000084
 3D:  12  11   2  Points:    8 Conv: 0.00000004
 3D:  12  11   1  Points:    8 Conv: 0.00000212
 3D:  12  10   9  Points:    8 Conv: 0.00000072
 3D:  12  10   8  Points:    8 Conv: 0.00000004
 3D:  12  10   7  Points:    8 Conv: 0.00000024
 3D:  12  10   6  Points:    8 Conv: 0.00000075
 3D:  12  10   5  Points:    8 Conv: 0.00000020
 3D:  12  10   4  Points:    8 Conv: 0.00000053
 3D:  12  10   3  Points:    8 Conv: 0.00000035
 3D:  12  10   2  Points:    8 Conv: 0.00000033
 3D:  12  10   1  Points:    8 Conv: 0.00000013
 3D:  12   9   8  Points:    8 Conv: 0.00000018
 3D:  12   9   7  Points:    8 Conv: 0.00000004
 3D:  12   9   6  Points:    8 Conv: 0.00000066
 3D:  12   9   5  Points:    8 Conv: 0.00000022
 3D:  12   9   4  Points:    8 Conv: 0.00000019
 3D:  12   9   3  Points:    8 Conv: 0.00000016
 3D:  12   9   2  Points:    8 Conv: 0.00000014
 3D:  12   9   1  Points:    8 Conv: 0.00000024
 3D:  12   8   7  Points:    8 Conv: 0.00000205
 3D:  12   8   6  Points:    8 Conv: 0.00000002
 3D:  12   8   5  Points:    8 Conv: 0.00000001
 3D:  12   8   4  Points:    8 Conv: 0.00000009
 3D:  12   8   3  Points:    8 Conv: 0.00000110
 3D:  12   8   2  Points:    8 Conv: 0.00000004
 3D:  12   8   1  Points:    8 Conv: 0.00000114
 3D:  12   7   6  Points:    8 Conv: 0.00000006
 3D:  12   7   5  Points:    8 Conv: 0.00000013
 3D:  12   7   4  Points:    8 Conv: 0.00000002
 3D:  12   7   3  Points:    8 Conv: 0.00000065
 3D:  12   7   2  Points:    8 Conv: 0.00000005
 3D:  12   7   1  Points:    8 Conv: 0.00000059
 3D:  12   6   5  Points:    8 Conv: 0.00000079
 3D:  12   6   4  Points:    8 Conv: 0.00000170
 3D:  12   6   3  Points:    8 Conv: 0.00000012
 3D:  12   6   2  Points:    8 Conv: 0.00000097
 3D:  12   6   1  Points:    8 Conv: 0.00000047
 3D:  12   5   4  Points:    8 Conv: 0.00000024
 3D:  12   5   3  Points:    8 Conv: 0.00000012
 3D:  12   5   2  Points:    8 Conv: 0.00000040
 3D:  12   5   1  Points:    8 Conv: 0.00000017
 3D:  12   4   3  Points:    8 Conv: 0.00000004
 3D:  12   4   2  Points:    8 Conv: 0.00000132
 3D:  12   4   1  Points:    8 Conv: 0.00000037
 3D:  12   3   2  Points:    8 Conv: 0.00000004
[...]
   |000000010000010000>     1.21454     0.31161     0.27599
   |000000010000100000>     1.21351     0.31173     0.27682
   |000000010001000000>     1.22232     0.31156     0.27698
   |000000010010000000>     1.22965     0.31165     0.27549
   |000000010100000000>     1.20993     0.30920     0.27391
   |000000011000000000>     1.21106     0.31175     0.27481
   |000000020000000000>     1.20771     0.31178     0.27740
   |000000100000000000>     1.24810     0.31049     0.27264
   |000000100000000001>     1.24652     0.31034     0.27252
   |000000100000000010>     1.24882     0.30974     0.27222
   |000000100000000100>     1.24599     0.31079     0.27281
   |000000100000001000>     1.24667     0.31014     0.27244
   |000000100000010000>     1.24476     0.31067     0.27281
   |000000100000100000>     1.24373     0.31080     0.27364
   |000000100001000000>     1.25254     0.31063     0.27381
   |000000100010000000>     1.25987     0.31071     0.27232
   |000000100100000000>     1.24015     0.30826     0.27074
   |000000101000000000>     1.24127     0.31082     0.27163
   |000000110000000000>     1.23793     0.31085     0.27423
   |000000200000000000>     1.26815     0.30992     0.27105
   |000001000000000000>     1.20742     0.30956     0.27491
   |000001000000000001>     1.20584     0.30941     0.27478
   |000001000000000010>     1.20814     0.30881     0.27449
   |000001000000000100>     1.20531     0.30986     0.27508
   |000001000000001000>     1.20599     0.30921     0.27471
   |000001000000010000>     1.20407     0.30974     0.27508
   |000001000000100000>     1.20305     0.30987     0.27591
   |000001000001000000>     1.21186     0.30970     0.27608
   |000001000010000000>     1.21919     0.30978     0.27459
   |000001000100000000>     1.19947     0.30733     0.27300
   |000001001000000000>     1.20059     0.30989     0.27390
   |000001010000000000>     1.19725     0.30992     0.27650
   |000001100000000000>     1.22747     0.30899     0.27332
   |000002000000000000>     1.18678     0.30806     0.27559
   |000010000000000000>     1.22050     0.31009     0.27142
   |000010000000000001>     1.21892     0.30995     0.27129
   |000010000000000010>     1.22122     0.30935     0.27099
   |000010000000000100>     1.21840     0.31039     0.27158
   |000010000000001000>     1.21907     0.30974     0.27122
   |000010000000010000>     1.21716     0.31028     0.27159
   |000010000000100000>     1.21614     0.31040     0.27242
   |000010000001000000>     1.22495     0.31023     0.27258
   |000010000010000000>     1.23228     0.31032     0.27109
   |000010000100000000>     1.21255     0.30787     0.26951
   |000010001000000000>     1.21368     0.31043     0.27041
   |000010010000000000>     1.21033     0.31046     0.27300
   |000010100000000000>     1.24055     0.30952     0.26983
   |000011000000000000>     1.19987     0.30859     0.27210
   |000020000000000000>     1.21296     0.30913     0.26860
   |000100000000000000>     1.23235     0.30926     0.27286
   |000100000000000001>     1.23077     0.30911     0.27273
   |000100000000000010>     1.23307     0.30852     0.27243
   |000100000000000100>     1.23024     0.30956     0.27302
   |000100000000001000>     1.23092     0.30891     0.27266
   |000100000000010000>     1.22900     0.30945     0.27303
   |000100000000100000>     1.22798     0.30957     0.27386
   |000100000001000000>     1.23679     0.30940     0.27402
   |000100000010000000>     1.24412     0.30949     0.27253
   |000100000100000000>     1.22440     0.30704     0.27095
   |000100001000000000>     1.22552     0.30959     0.27185
   |000100010000000000>     1.22218     0.30962     0.27444
   |000100100000000000>     1.25240     0.30869     0.27127
   |000101000000000000>     1.21171     0.30776     0.27354
   |000110000000000000>     1.22480     0.30830     0.27004
   |000200000000000000>     1.23665     0.30746     0.27148
   |001000000000000000>     1.23030     0.30976     0.27331
   |001000000000000001>     1.22872     0.30962     0.27318
   |001000000000000010>     1.23102     0.30902     0.27288
   |001000000000000100>     1.22819     0.31006     0.27347
   |001000000000001000>     1.22887     0.30941     0.27311
   |001000000000010000>     1.22696     0.30995     0.27348
   |001000000000100000>     1.22593     0.31007     0.27431
   |001000000001000000>     1.23475     0.30990     0.27448
   |001000000010000000>     1.24207     0.30999     0.27299
   |001000000100000000>     1.22235     0.30754     0.27140
   |001000001000000000>     1.22348     0.31010     0.27230
   |001000010000000000>     1.22013     0.31013     0.27489
   |001000100000000000>     1.25035     0.30919     0.27172
   |001001000000000000>     1.20967     0.30826     0.27399
   |001010000000000000>     1.22276     0.30880     0.27049
   |001100000000000000>     1.23460     0.30797     0.27193
   |002000000000000000>     1.23255     0.30847     0.27238
   |010000000000000000>     1.23888     0.30988     0.27309
   |010000000000000001>     1.23730     0.30974     0.27296
   |010000000000000010>     1.23960     0.30914     0.27267
   |010000000000000100>     1.23678     0.31019     0.27326
   |010000000000001000>     1.23745     0.30953     0.27289
   |010000000000010000>     1.23554     0.31007     0.27326
   |010000000000100000>     1.23451     0.31019     0.27409
   |010000000001000000>     1.24333     0.31002     0.27426
   |010000000010000000>     1.25065     0.31011     0.27277
   |010000000100000000>     1.23093     0.30766     0.27118
   |010000001000000000>     1.23206     0.31022     0.27208
   |010000010000000000>     1.22871     0.31025     0.27468
   |010000100000000000>     1.25893     0.30932     0.27150
   |010001000000000000>     1.21825     0.30838     0.27377
   |010010000000000000>     1.23134     0.30892     0.27028
   |010100000000000000>     1.24318     0.30809     0.27172
   |011000000000000000>     1.24113     0.30859     0.27217
   |020000000000000000>     1.24971     0.30871     0.27195
   |100000000000000000>     1.24226     0.30699     0.27213
   |100000000000000001>     1.24068     0.30685     0.27200
   |100000000000000010>     1.24298     0.30625     0.27170
   |100000000000000100>     1.24015     0.30729     0.27229
   |100000000000001000>     1.24083     0.30664     0.27193
   |100000000000010000>     1.23892     0.30718     0.27230
   |100000000000100000>     1.23789     0.30730     0.27313
   |100000000001000000>     1.24670     0.30713     0.27329
   |100000000010000000>     1.25403     0.30722     0.27180
   |100000000100000000>     1.23431     0.30477     0.27022
   |100000001000000000>     1.23543     0.30732     0.27112
   |100000010000000000>     1.23209     0.30735     0.27371
   |100000100000000000>     1.26231     0.30642     0.27054
   |100001000000000000>     1.22163     0.30549     0.27281
   |100010000000000000>     1.23471     0.30603     0.26931
   |100100000000000000>     1.24656     0.30519     0.27075
   |101000000000000000>     1.24451     0.30570     0.27120
   |110000000000000000>     1.25309     0.30582     0.27099
   |200000000000000000>     1.25647     0.30293     0.27002


 VPT2 zero-point vibrational energy (in cm^-1)

 Harmonic:       15225.28525
 Anharmonic:     -1189.61278
 Kinetic:            1.79476
 Total:          14037.46722

 Results of VPT2 calculation (Frequencies in cm-1)


 Fundamentals

       Mode           Harmonic    Anharmonic     Intensity
      18^1 A           3140.02       2990.50          6.11
      17^1 A           3135.07       2958.40         16.91
      16^1 A           3063.05       2927.51          0.07
      15^1 A           3052.05       2884.31          5.52
      14^1 A           3016.16       2876.80          0.44
      11^1 A           1504.48       1254.65          2.84
       9^1 A           1440.73       1232.97        108.11
      13^1 A           1564.98       1212.64          1.48
      10^1 A           1456.66       1212.09        188.73
      12^1 A           1518.74       1208.21          0.48
       5^1 A           1108.13       1040.42         43.10
       6^1 A           1157.68       1024.89        303.44
       7^1 A           1242.23        946.02          5.72
       4^1 A            934.88        716.19         19.84
       3^1 A            890.33        432.38          0.12
       2^1 A            444.06        253.78          2.83
       1^1 A            447.40       -837.94        -38.21
       8^1 A           1333.90      -1355.15         -3.78


 Overtones

       Mode           Harmonic    Anharmonic     Intensity
      11^2 A           3008.95       2475.03          4.24
       9^2 A           2881.47       2439.02          2.64
      12^2 A           3037.49       2392.43         25.38
      10^2 A           2913.33       2371.08          0.37
      13^2 A           3129.96       2317.25          1.76
       5^2 A           2216.26       2075.26          0.07
       6^2 A           2315.36       2035.84          0.17
       7^2 A           2484.47       1851.72          0.01
       4^2 A           1869.75       1401.16          0.31
       3^2 A           1780.67        740.29          0.06
       2^2 A            888.11        479.61          0.54
       1^2 A            894.81      -2407.61        -60.43
       8^2 A           2667.79      -2769.24         -0.13


 Combination bands

       Mode           Harmonic    Anharmonic     Intensity
 11^1 18^1 A           4644.49       4234.50          0.06
  9^1 18^1 A           4580.75       4216.38          0.29
 13^1 18^1 A           4705.00       4195.24          0.00
 10^1 18^1 A           4596.68       4193.23          0.02
 12^1 18^1 A           4658.76       4188.29          0.16
  9^1 17^1 A           4575.81       4187.13          0.11
 11^1 17^1 A           4639.55       4182.41          0.03
 13^1 17^1 A           4700.06       4169.39          0.01
 11^1 16^1 A           4567.53       4163.49          0.02
 12^1 17^1 A           4653.82       4158.69          0.10
  9^1 16^1 A           4503.79       4157.41          0.02
 10^1 17^1 A           4591.74       4154.72          0.07
 10^1 16^1 A           4519.72       4135.82          0.11
 12^1 16^1 A           4581.80       4129.18          0.02
 13^1 16^1 A           4628.03       4124.71          0.57
 11^1 14^1 A           4520.64       4120.40          0.01
  9^1 15^1 A           4492.79       4114.47          0.15
  9^1 14^1 A           4456.90       4113.05          0.03
 11^1 15^1 A           4556.53       4102.31          0.13
 10^1 14^1 A           4472.83       4089.34          0.02
 10^1 15^1 A           4508.72       4072.73          0.12
 13^1 15^1 A           4617.04       4070.42          0.00
 12^1 14^1 A           4534.91       4062.76          0.06
 13^1 14^1 A           4581.15       4060.51          0.42
 12^1 15^1 A           4570.80       4053.44          0.15
  5^1 18^1 A           4248.15       4023.19          0.00
  6^1 18^1 A           4297.69       4006.27          0.16
  5^1 17^1 A           4243.20       3994.45          0.10
  6^1 17^1 A           4292.75       3973.77          0.04
  5^1 16^1 A           4171.18       3961.38          0.02
  6^1 16^1 A           4220.73       3947.57          0.27
  7^1 18^1 A           4382.25       3932.06          0.21
  5^1 15^1 A           4160.19       3912.15          0.06
  5^1 14^1 A           4124.30       3904.21          0.03
  7^1 17^1 A           4377.31       3898.73          0.07
  6^1 15^1 A           4209.73       3893.57          0.25
  6^1 14^1 A           4173.84       3890.35          0.40
  7^1 16^1 A           4305.28       3876.14          0.08
  7^1 15^1 A           4294.29       3815.22          0.32
  7^1 14^1 A           4258.40       3805.47          0.40
  4^1 18^1 A           4074.89       3699.47          0.01
  4^1 17^1 A           4069.95       3661.03          0.07
  4^1 16^1 A           3997.93       3637.61          0.13
  4^1 15^1 A           3986.93       3583.38          0.03
  4^1 14^1 A           3951.04       3580.71          0.08
  3^1 18^1 A           4030.35       3408.46          0.04
  3^1 17^1 A           4025.41       3380.79          0.00
  3^1 16^1 A           3953.39       3343.86          0.13
  3^1 15^1 A           3942.39       3299.61          0.03
  3^1 14^1 A           3906.50       3287.93          0.28
  2^1 18^1 A           3584.07       3236.23          0.00
  2^1 17^1 A           3579.13       3200.31          0.25
  2^1 16^1 A           3507.11       3176.21          0.01
  2^1  3^1 A           1334.39       3126.15      18976.24
  2^1 15^1 A           3496.11       3121.77          0.01
  2^1 14^1 A           3460.22       3119.27          0.01
  9^1 11^1 A           2945.21       2482.92          0.02
 11^1 13^1 A           3069.46       2475.51         26.30
 11^1 12^1 A           3023.22       2438.83          0.19
 10^1 11^1 A           2961.14       2434.34          0.42
  9^1 12^1 A           2959.48       2419.74          0.37
 10^1 13^1 A           3021.65       2409.69         14.63
 10^1 12^1 A           2975.41       2389.92          0.17
 12^1 13^1 A           3083.73       2387.14          4.85
  9^1 10^1 A           2897.40       2379.09          2.04
  9^1 13^1 A           3005.72       2377.18         36.83
  5^1 11^1 A           2612.61       2284.63          0.03
  5^1  9^1 A           2548.86       2260.82          0.47
  6^1 11^1 A           2662.16       2256.67          0.09
  6^1  9^1 A           2598.41       2249.43          0.03
  5^1 13^1 A           2673.11       2249.16          0.05
  5^1 12^1 A           2626.88       2243.43          0.02
  5^1 10^1 A           2564.80       2237.94          0.17
  6^1 13^1 A           2722.66       2230.57          0.01
  6^1 12^1 A           2676.42       2215.14          0.12
  6^1 10^1 A           2614.34       2207.84          0.30
  7^1 11^1 A           2746.71       2177.06          0.39
  7^1  9^1 A           2682.97       2153.10          0.05
  1^1 18^1 A           3587.42       2136.47          0.12
  7^1 10^1 A           2698.90       2121.87          0.10
  7^1 12^1 A           2760.98       2101.12          0.01
  1^1 16^1 A           3510.46       2085.73          0.01
  1^1 17^1 A           3582.48       2074.40          0.12
  7^1 13^1 A           2807.21       2059.46          0.02
  5^1  6^1 A           2265.81       2053.35          0.73
  1^1 14^1 A           3463.57       2029.11          0.01
  1^1 15^1 A           3499.46       2011.96          0.00
  5^1  7^1 A           2350.36       1978.66          0.01
  6^1  7^1 A           2399.91       1963.02          0.03
  4^1 11^1 A           2439.35       1946.15          0.17
  4^1  9^1 A           2375.61       1924.13          0.03
  4^1 13^1 A           2499.86       1914.36          0.05
  4^1 12^1 A           2453.62       1905.04          0.08
  4^1 10^1 A           2391.54       1880.86          0.59
  4^1  5^1 A           2043.01       1745.77          0.80
  4^1  6^1 A           2092.55       1713.73          0.14
  3^1 11^1 A           2394.81       1672.13          0.20
  4^1  7^1 A           2177.11       1648.50          0.00
  8^1 18^1 A           4473.91       1631.21          0.05
  3^1  9^1 A           2331.07       1630.99          0.00
  3^1 10^1 A           2347.00       1603.22          0.31
  8^1 17^1 A           4468.97       1602.17          0.01
  8^1 16^1 A           4396.95       1587.11          0.03
  3^1 12^1 A           2409.08       1566.39          0.30
  3^1 13^1 A           2455.31       1529.90          0.05
  8^1 15^1 A           4385.95       1520.27          0.02
  2^1 11^1 A           1948.53       1489.45          0.11
  8^1 14^1 A           4350.06       1479.18          0.07
  2^1  9^1 A           1884.79       1470.60          0.18
  3^1  5^1 A           1998.46       1462.31          0.02
  2^1 13^1 A           2009.04       1462.02          0.04
  3^1  6^1 A           2048.01       1446.01          0.00
  2^1 12^1 A           1962.80       1443.77          0.01
  2^1 10^1 A           1900.72       1420.96          0.30
  2^1  5^1 A           1552.19       1289.27          0.50
  2^1  6^1 A           1601.73       1258.48          0.11
  3^1  7^1 A           2132.57       1248.04          0.06
  2^1  7^1 A           1686.29       1185.45          0.00
  3^1  4^1 A           1825.21       1135.13          0.00
  2^1  4^1 A           1378.93        906.15          2.05
  1^1  9^1 A           1888.14        368.61          0.00
  1^1 13^1 A           2012.39        327.45          0.04
  1^1 10^1 A           1904.07        280.68          0.06
  1^1 12^1 A           1966.15        219.54          0.12
  1^1 11^1 A           1951.88        217.67          0.14
  1^1  5^1 A           1555.54        183.00          0.03
  1^1  6^1 A           1605.08        117.01          0.02
  1^1  7^1 A           1689.64         29.75          0.00
  8^1 11^1 A           2838.37        -99.59         -0.00
  8^1 12^1 A           2852.64       -164.99         -0.00
  8^1 10^1 A           2790.56       -165.90         -0.01
  8^1  9^1 A           2774.63       -217.17         -0.04
  1^1  4^1 A           1382.28       -222.04         -0.05
  8^1 13^1 A           2898.88       -239.94         -0.04
  5^1  8^1 A           2442.03       -326.18         -0.00
  6^1  8^1 A           2491.57       -335.17         -0.01
  7^1  8^1 A           2576.13       -434.64         -0.02
  1^1  3^1 A           1337.74       -549.64         -0.19
  4^1  8^1 A           2268.77       -661.24         -0.00
  1^1  2^1 A            891.46       -689.89         -0.03
  1^1  8^1 A           1781.30      -2203.46         -0.13
  3^1  8^1 A           2224.23      -3410.64         -0.61
  2^1  8^1 A           1777.95      -3560.24         -0.00

 CPU-Time for VPT2 calculation:          0.2 sec.


 **********************************************************************************************************************************
 DATASETS  * FILE   NREC   LENGTH (MB)   RECORD NAMES
              1      20      157.46       500      610      700      900      950      970     1000      129      960     1100   
                                          VAR    BASINP    GEOM    SYMINP    ZMAT    AOBASIS   BASIS     P2S    ABASIS      S 
                                         1400     1410     1200     1210     1080     1600     1650     1300     1700     1800   
                                           T        V       H0       H01     AOSYM     SMH    MOLCAS    ERIS     OPER     GRID   

              2      15     1727.39       700     1000      520     1800     2100      701     5300     5450     5400     2101   
                                         GEOM     BASIS   MCVARS    GRID      RKS     GEOM     HESS     NMOD     FREQ      RKS  
                                         5600     5650     5550     5750     5770   
                                         SURF    DIPOLE   VIBINFO   POLY      MU  

 PROGRAMS   *        TOTAL      VPT2      POLY    KS-SCF       INT    KS-SCF       INT    KS-SCF       INT    KS-SCF       INT
 CPU TIMES  *     48352.97      0.23     20.20      8.35     11.31      8.41     11.20      8.41     11.30      8.45     11.29
 REAL TIME  *     50316.20 SEC
 DISK USED  *         2.22 GB
 **********************************************************************************************************************************

 VPT2/DEF2-TZVP energy=      0.000000000000

            VPT2            POLY          KS-SCF          KS-SCF          KS-SCF          KS-SCF          KS-SCF          KS-SCF
   -179.03437895   -179.03437895   -179.03437895   -179.03448762   -179.03437246   -179.03450263   -179.03413419   -179.03402435
 **********************************************************************************************************************************
 Molpro calculation terminated
