
 Primary working directories    : /jobfs/7633244.gadi-pbs/molpro.u4IpFwxMDZ
 Secondary working directories  : /jobfs/7633244.gadi-pbs/molpro.u4IpFwxMDZ
 Wavefunction directory         : /home/561/pk8622/wfu/
 Main file repository           : /jobfs/7633244.gadi-pbs/molpro.u4IpFwxMDZ/

 id        : anu

 Nodes                            nprocs
 gadi-cpu-clx-1999.gadi.nci.org.au    4

 Using customized tuning parameters: mindgm=1; mindgv=20; mindgc=4; mindgr=1; noblas=0; minvec=7
 default implementation of scratch files=df  


 Variables initialized (934), CPU time= 0.09 sec
 ***,Geom opt + VPT2 for fluoromethane
 
 memory,40,m
 basis=def2-TZVP
 
 orient,mass
 geomtyp=xyz
 geometry={
 5
 C         -0.48347        1.09831       -0.05476
 H          0.60830        1.10236       -0.04160
 F         -0.93570        1.47471        1.16770
 H         -0.85389        0.09448       -0.27218
 H         -0.85389        1.80599       -0.79916
 }
 mass,iso
 
 ks,M06
 optg
 
 frequencies,symm=auto
 
 label1
 {ks,M06
 start,atden}
 
 surf,start1D=label1,type=qff,sym=auto
 poly,type=qff
 vpt2,combi=1
 Commands  initialized (763), CPU time= 0.03 sec, 617 directives.
 Default parameters read. Elapsed time= 0.08 sec

 Checking input...
 Passed
1


                                         ***  PROGRAM SYSTEM MOLPRO  ***
                                       Copyright, TTI GmbH Stuttgart, 2015
                                    Version 2019.2 linked Nov 21 2019 12:21:21


 **********************************************************************************************************************************
 LABEL *   Geom opt + VPT2 for fluoromethane                                             
  64 bit mppx version                                                                    DATE: 23-Jun-20          TIME: 15:27:41  
 **********************************************************************************************************************************

 SHA1:             8dbd9ae1082e4ce945b0f27595c9eb2d4aa09004
 **********************************************************************************************************************************

 Variable memory set to   40000000 words,  buffer space 

 SETTING BASIS          =    DEF2-TZVP
 SETTING GEOMTYP        =    XYZ
 ZCENTRE=MASS
 


 Using masses of most abundant isotopes

 **********************************************************************************************************************************


 Recomputing integrals since basis changed


 Using spherical harmonics

 Library entry C      S def2-TZVP            selected for orbital group  1
 Library entry C      P def2-TZVP            selected for orbital group  1
 Library entry C      D def2-TZVP            selected for orbital group  1
 Library entry C      F def2-TZVP            selected for orbital group  1
 Library entry H      S def2-TZVP            selected for orbital group  2
 Library entry H      P def2-TZVP            selected for orbital group  2
 Library entry F      S def2-TZVP            selected for orbital group  3
 Library entry F      P def2-TZVP            selected for orbital group  3
 Library entry F      D def2-TZVP            selected for orbital group  3
 Library entry F      F def2-TZVP            selected for orbital group  3


 PROGRAM * SEWARD (Integral evaluation for generally contracted gaussian basis sets)     Author: Roland Lindh, 1990

 Geometry written to block  1 of record 700

 Orientation using atomic masses  
 Molecule type: Asymmetric top
 Rotational constants:      26.5926439     26.5926286    156.3634076 GHz

 Point group  C1  



 ATOMIC COORDINATES

 NR  ATOM    CHARGE       X              Y              Z

   1  C       6.00    0.000001333    0.000000717   -1.372714737
   2  H       1.00    1.947063460    0.162435020   -2.035899341
   3  F       9.00    0.000000026   -0.000000118    1.191050576
   4  H       1.00   -0.832864765   -1.767426130   -2.035893969
   5  H       1.00   -1.114215063    1.604984801   -2.035892465

 Bond lengths in Bohr (Angstrom)

 1-2  2.063310362  1-3  2.563765313  1-4  2.063315364  1-5  2.063312091
     ( 1.091856823)     ( 1.356686178)     ( 1.091859470)     ( 1.091857737)

 Bond angles

  2-1-3  108.74871759   2-1-4  110.18420236   2-1-5  110.18441199   3-1-4  108.74845294

  3-1-5  108.74846773   4-1-5  110.18376421

 NUCLEAR CHARGE:                   18
 NUMBER OF PRIMITIVE AOS:         126
 NUMBER OF SYMMETRY AOS:          116
 NUMBER OF CONTRACTIONS:           80   (   80A   )
 NUMBER OF CORE ORBITALS:           2   (    2A   )
 NUMBER OF VALENCE ORBITALS:       11   (   11A   )


 NUCLEAR REPULSION ENERGY   37.83043701


 Eigenvalues of metric

         1 0.199E-02 0.384E-02 0.736E-02 0.736E-02 0.104E-01 0.161E-01 0.224E-01 0.224E-01


 Contracted 2-electron integrals neglected if value below      1.0D-11
 AO integral compression algorithm  1   Integral accuracy      1.0D-11

     21.496 MB (compressed) written to integral file ( 41.8%)


 NUMBER OF SORTED TWO-ELECTRON INTEGRALS:    5250420.     BUFFER LENGTH:  32768
 NUMBER OF SEGMENTS:   1  SEGMENT LENGTH:    5250420      RECORD LENGTH: 524288

 Memory used in sort:       5.81 MW

 SORT1 READ     6419676. AND WROTE     4416380. INTEGRALS IN     13 RECORDS. CPU TIME:     0.14 SEC, REAL TIME:     0.16 SEC
 SORT2 READ     4416380. AND WROTE     5250420. INTEGRALS IN     82 RECORDS. CPU TIME:     0.13 SEC, REAL TIME:     0.19 SEC

 FILE SIZES:   FILE 1:    51.8 MBYTE,  FILE 4:    54.6 MBYTE,   TOTAL:    106.3 MBYTE

 OPERATOR DM      FOR CENTER  0  COORDINATES:    0.000000    0.000000    0.000000


 **********************************************************************************************************************************
 DATASETS  * FILE   NREC   LENGTH (MB)   RECORD NAMES
              1      19       47.92       500      610      700      900      950      970     1000      129      960     1100   
                                          VAR    BASINP    GEOM    SYMINP    ZMAT    AOBASIS   BASIS     P2S    ABASIS      S 
                                         1400     1410     1200     1210     1080     1600     1650     1300     1700   
                                           T        V       H0       H01     AOSYM     SMH    MOLCAS    ERIS     OPER   

 PROGRAMS   *        TOTAL       INT
 CPU TIMES  *         3.07      2.40
 REAL TIME  *         3.43 SEC
 DISK USED  *       106.67 MB
 **********************************************************************************************************************************

 Density functional group M06=XC-M06
 Functional: XC-M06(via MFM 1.6)                                               Gradient terms: 1
 Use libxcgrid:  F
 Use grid at  1800.2
 

 Exact exchange will be calculated, factor:  0.2700

 Functional: XC-M06                    Factor:  1.0000
 
 Generated new metagrid on record  1800.2 with target accuracy 1.0D-06 and 18862 points in CPU time    0.3
 Computed new grid on record 1800.1 in CPU time    0.3
   67514 words reserved for DFT integration

 PROGRAM * RKS-SCF (Restricted closed shell Kohn-Sham)     Authors: W. Meyer, H.-J. Werner, P.J. Knowles, 1993

 NUMBER OF ELECTRONS:       9+    9-    SPACE SYMMETRY=1    SPIN SYMMETRY: Singlet 
 CONVERGENCE THRESHOLDS:    1.00E-06 (Density)    1.00E-06 (Energy)
 MAX. NUMBER OF ITERATIONS:       60
 INTERPOLATION TYPE:            DIIS
 INTERPOLATION STEPS:              2 (START)      1 (STEP)
 LEVEL SHIFTS:                  0.00 (CLOSED)  0.00 (OPEN) 



 Use fine grid record 1800.2 for energy threshold  1.0D-06
 Orbital guess generated from atomic densities. Full valence occupancy:    9

 Molecular orbital dump at record        2100.2

 Initial occupancy:   9

 ITERATION    DDIFF          GRAD             ENERGY        2-EL.EN.            DIPOLE MOMENTS         DIIS   ORB.
    1      0.000D+00      0.000D+00      -139.70101272    208.736067    0.00001   -0.00003   -0.89785    0    start
    2      0.000D+00      0.783D-02      -139.69774226    200.651289   -0.00124    0.00048   -0.38523    1    diag
    3      0.772D-02      0.909D-02      -139.73270822    205.018405   -0.00046   -0.00007   -0.67887    2    diag
    4      0.390D-02      0.991D-03      -139.73305405    204.921667   -0.00043   -0.00004   -0.64918    3    diag
    5      0.442D-03      0.430D-03      -139.73312989    204.907322   -0.00044   -0.00005   -0.65654    4    diag
    6      0.171D-03      0.670D-04      -139.73313220    204.927273   -0.00042   -0.00005   -0.65747    5    diag
    7      0.442D-04      0.538D-05      -139.73313222    204.926519   -0.00043   -0.00004   -0.65731    6    diag
    8      0.526D-05      0.105D-05      -139.73313222    204.926892   -0.00042   -0.00005   -0.65735    7    diag
    9      0.104D-05      0.135D-06      -139.73313222    204.926878   -0.00042   -0.00005   -0.65734    8    diag
   10      0.113D-06      0.122D-07      -139.73313222    204.926880   -0.00042   -0.00005   -0.65735    0    orth

 Final occupancy:   9

 !RKS STATE  1.1 Energy              -139.733132218502
 Nuclear energy                        37.83043701
 One-electron energy                 -267.46618065
 Two-electron energy                  102.46344020
 SCF exchange energy                  -16.31936745     Factor= 0.2700
 Density functional                   -12.56082878     XC-M06=-12.56082878
 Virial quotient                       -1.00325136
 !RKS STATE  1.1 Dipole moment         -0.00042278    -0.00004635    -0.65734528
 Dipole moment /Debye                  -0.00107453    -0.00011781    -1.67069562

 Orbital energies:

         1.1          2.1          3.1          4.1          5.1          6.1          7.1          8.1          9.1         10.1
    -24.757112   -10.308432    -1.237260    -0.712544    -0.513917    -0.503209    -0.503054    -0.360778    -0.360634     0.048387

        11.1
      0.083207


 HOMO      9.1    -0.360634 =      -9.8133eV
 LUMO     10.1     0.048387 =       1.3167eV
 LUMO-HOMO         0.409021 =      11.1300eV


 **********************************************************************************************************************************
 DATASETS  * FILE   NREC   LENGTH (MB)   RECORD NAMES
              1      20       48.52       500      610      700      900      950      970     1000      129      960     1100   
                                          VAR    BASINP    GEOM    SYMINP    ZMAT    AOBASIS   BASIS     P2S    ABASIS      S 
                                         1400     1410     1200     1210     1080     1600     1650     1300     1700     1800   
                                           T        V       H0       H01     AOSYM     SMH    MOLCAS    ERIS     OPER     GRID   

              2       5        2.95       700     1000      520     1800     2100   
                                         GEOM     BASIS   MCVARS    GRID      RKS  

 PROGRAMS   *        TOTAL    KS-SCF       INT
 CPU TIMES  *         5.58      2.51      2.40
 REAL TIME  *         6.05 SEC
 DISK USED  *       106.67 MB
 **********************************************************************************************************************************


 PROGRAM * OPT (Geometry optimization)     Authors: F. Eckert and H.-J. Werner


 BFGS update of hessian

 *** Long output written to logfile /scratch/on41/pk8622/Test_Calcs/Molpro/VPT2/fluoromethane_vpt2.log ***


 Geometry optimization using default procedure for command KS-SCF

 Geometry written to block  1 of record 700

 Making model hessian for cartesian coordinates

 Entering Rational Function Geometry Optimization

 ITER.   ENERGY(OLD)    ENERGY(NEW)      DE          GRADMAX     GRADNORM    GRADRMS     STEPMAX     STEPLEN     STEPRMS   CPU-time
   1  -139.73313222  -139.73328721    -0.00015500  0.00694624  0.01061707  0.00117967  0.04912605  0.05220989  0.02334897     15.49
   2  -139.73328721  -139.72116596     0.01212125  0.00196411  0.00365746  0.00040638  0.24842767  0.30000000  0.13416408     30.72
   3  -139.72116596  -139.73343351    -0.01226754  0.07636301  0.08265600  0.00918400  0.25831867  0.30000000  0.13416408     45.86
   4  -139.73343351  -139.71854955     0.01488396  0.00171306  0.00322379  0.00035820  0.27681117  0.30000000  0.13416408     61.13
   5  -139.71854955  -139.73255400    -0.01400445  0.08469711  0.09534301  0.01059367  0.27180358  0.28103576  0.12568301     76.24
   6  -139.73255400  -139.72454614     0.00800785  0.01306743  0.02075031  0.00230559  0.19683445  0.30000000  0.13416408     91.51
   7  -139.72454614  -139.72423044     0.00031570  0.08408778  0.10742112  0.01193568  0.18128405  0.29473120  0.13180780    106.96
   8  -139.72423044  -139.71538502     0.00884542  0.07297286  0.10692085  0.01188009  0.24111057  0.30000000  0.13416408    122.42
   9  -139.71538502  -139.71955327    -0.00416824  0.10700317  0.16411871  0.01823541  0.19780276  0.30000000  0.13416408    137.83
  10  -139.71955327  -139.73030429    -0.01075103  0.08721758  0.11531210  0.01281246  0.26846109  0.30000000  0.13416408    153.18
  11  -139.73030429  -139.72078006     0.00952423  0.04576690  0.06760227  0.00751136  0.17480402  0.30000000  0.13416408    168.63
  12  -139.72078006  -139.72994705    -0.00916699  0.10217969  0.11841068  0.01315674  0.14106209  0.30000000  0.13416408    184.12
  13  -139.72994705  -139.71995551     0.00999154  0.07250004  0.07644275  0.00849364  0.22239859  0.30000000  0.13416408    199.61
  14  -139.71995551  -139.73071947    -0.01076396  0.08846187  0.13030849  0.01447872  0.23162061  0.27336345  0.12225185    214.93
  15  -139.73071947  -139.73258273    -0.00186326  0.04824350  0.05527209  0.00614134  0.04865961  0.08767944  0.03921144    230.00
  16  -139.73258273  -139.72135724     0.01122549  0.02100106  0.02377890  0.00264210  0.17096693  0.30000000  0.13416408    245.50
  17  -139.72135724  -139.71173350     0.00962374  0.07353984  0.12271278  0.01363475  0.20415779  0.30000000  0.13416408    260.81
  18  -139.71173350  -139.71435328    -0.00261978  0.12265294  0.17188195  0.01909799  0.17664187  0.30000000  0.13416408    276.31
  19  -139.71435328  -139.70401183     0.01034145  0.07692917  0.12234225  0.01359358  0.18545684  0.30000000  0.13416408    291.54
  20  -139.70401183  -139.71512978    -0.01111795  0.08276807  0.16047952  0.01783106  0.17992745  0.30000000  0.13416408    306.99
  21  -139.71512978  -139.72996521    -0.01483543  0.09703209  0.12917928  0.01435325  0.15011067  0.30000000  0.13416408    322.11
  22  -139.72996521  -139.71841928     0.01154593  0.05377049  0.07190676  0.00798964  0.18836322  0.30000000  0.13416408    337.57
  23  -139.71841928  -139.71625723     0.00216204  0.13724456  0.14812988  0.01645888  0.21936221  0.30000000  0.13416408    352.64
  24  -139.71625723  -139.72537210    -0.00911486  0.08080690  0.10823223  0.01202580  0.17872003  0.30000000  0.13416408    367.81
  25  -139.72537210  -139.72225267     0.00311943  0.10766803  0.11404068  0.01267119  0.20563819  0.30000000  0.13416408    383.35
  26  -139.72225267  -139.71556572     0.00668695  0.07752596  0.13799738  0.01533304  0.21925491  0.30000000  0.13416408    398.86
  27  -139.71556572  -139.71717496    -0.00160924  0.13220779  0.16960949  0.01884550  0.23253150  0.30000000  0.13416408    414.19
  28  -139.71717496  -139.73089926    -0.01372430  0.13511166  0.14643428  0.01627048  0.23263159  0.26930304  0.12043598    429.60
  29  -139.73089926  -139.71874542     0.01215384  0.04636639  0.05242584  0.00582509  0.22256041  0.30000000  0.13416408    444.89
  30  -139.71874542  -139.72237671    -0.00363129  0.11592446  0.14777078  0.01641898  0.16453721  0.30000000  0.13416408    460.11
  31  -139.72237671  -139.72802338    -0.00564667  0.10531474  0.12490682  0.01387854  0.18033606  0.30000000  0.13416408    475.61
  32  -139.72802338  -139.71925857     0.00876480  0.06588782  0.08006328  0.00889592  0.19775263  0.30000000  0.13416408    491.06
  33  -139.71925857  -139.71755107     0.00170750  0.11353160  0.14920583  0.01657843  0.22066530  0.30000000  0.13416408    506.34
  34  -139.71755107  -139.72408981    -0.00653874  0.11657674  0.15270142  0.01696682  0.19998667  0.30000000  0.13416408    521.68
  35  -139.72408981  -139.72259177     0.00149804  0.09046310  0.10983754  0.01220417  0.19468334  0.30000000  0.13416408    536.92
  36  -139.72259177  -139.73219832    -0.00960655  0.11781348  0.12634535  0.01403837  0.10982929  0.17471326  0.07813415    552.23
  37  -139.73219832  -139.73246519    -0.00026686  0.03813055  0.04175856  0.00463984  0.09162985  0.15240718  0.06815856    567.52
  38  -139.73246519  -139.72582883     0.00663636  0.02210987  0.03032145  0.00336905  0.17748861  0.24206067  0.10825282    582.67
  39  -139.72582883  -139.72366223     0.00216660  0.06484459  0.09206759  0.01022973  0.15060146  0.29483330  0.13185346    597.98
  40  -139.72366223  -139.73174558    -0.00808336  0.08976299  0.10416164  0.01157352  0.16429094  0.24478454  0.10947097    613.47
  41  -139.73174558  -139.72529404     0.00645154  0.03473154  0.04960667  0.00551185  0.20979623  0.30000000  0.13416408    628.86
  42  -139.72529404  -139.73086836    -0.00557432  0.06096460  0.06493273  0.00721475  0.26112330  0.30000000  0.13416408    643.99
  43  -139.73086836  -139.73196232    -0.00109396  0.03383495  0.04768137  0.00529793  0.18654952  0.26803154  0.11986735    659.11
  44  -139.73196232  -139.73314552    -0.00118320  0.02023697  0.03000069  0.00333341  0.10648578  0.14881991  0.06655429    674.36
  45  -139.73314552  -139.73330997    -0.00016445  0.00789733  0.01020374  0.00113375  0.03432259  0.04891223  0.02187421    689.58
  46  -139.73330997  -139.71753406     0.01577591  0.00504962  0.00753523  0.00083725  0.23579087  0.30000000  0.13416408    704.86
  47  -139.71753406  -139.73310783    -0.01557377  0.07942466  0.11816906  0.01312990  0.24824598  0.27689250  0.12383009    719.96
  48  -139.73310783  -139.73328440    -0.00017657  0.00735353  0.01059250  0.00117694  0.02097886  0.02737498  0.01224246    735.18
  49  -139.73328440  -139.71631073     0.01697367  0.00355968  0.00418113  0.00046457  0.24646821  0.30000000  0.13416408    750.40
  50  -139.71631073  -139.73174778    -0.01543705  0.11007297  0.14042732  0.01560304  0.16248173  0.20047314  0.08965431    765.79
  51  -139.73174778  -139.73306936    -0.00132158  0.03024882  0.03765438  0.00418382  0.07349322  0.09995318  0.04470042    781.07
  52  -139.73306936  -139.72258216     0.01048720  0.00564097  0.00818026  0.00090892  0.17086557  0.30000000  0.13416408    796.57
  53  -139.72258216  -139.72937675    -0.00679459  0.07045753  0.09537929  0.01059770  0.15933625  0.28415564  0.12707827    812.06
  54  -139.72937675  -139.72718466     0.00219209  0.04907239  0.07530606  0.00836734  0.15470523  0.30000000  0.13416408    827.53
  55  -139.72718466  -139.73295508    -0.00577042  0.07348289  0.09183821  0.01020425  0.08457521  0.15212534  0.06803252    842.76
  56  -139.73295508  -139.72691893     0.00603615  0.01192583  0.01670537  0.00185615  0.18560023  0.21836274  0.09765479    858.04
  57  -139.72691893  -139.73138534    -0.00446641  0.06460454  0.08199760  0.00911084  0.06762797  0.09517109  0.04256180    873.41
  58  -139.73138534  -139.73276291    -0.00137756  0.03227532  0.04051882  0.00450209  0.12493080  0.16651418  0.07446741    888.71
  59  -139.73276291  -139.73324906    -0.00048616  0.01641992  0.01971677  0.00219075  0.04658506  0.07200877  0.03220330    904.13
  60  -139.73324906  -139.72110008     0.01214898  0.00135971  0.00218585  0.00024287  0.24770119  0.30000000  0.13416408    919.36
  61  -139.72110008  -139.73346888    -0.01236880  0.07631891  0.08298671  0.00922075  0.26686768  0.30000000  0.13416408    934.72
  62  -139.73346888  -139.72012183     0.01334705  0.00530496  0.00884027  0.00098225  0.27188729  0.30000000  0.13416408    949.98
  63  -139.72012183  -139.73329476    -0.01317293  0.07977042  0.08685073  0.00965008  0.27104165  0.30000000  0.13416408    965.12
  64  -139.73329476  -139.73322979     0.00006497  0.00845915  0.00954640  0.00106071  0.00878473  0.01287413  0.00575748    980.40
  65  -139.73322979  -139.72136084     0.01186895  0.00159809  0.00280792  0.00031199  0.24195313  0.30000000  0.13416408    995.62
  66  -139.72136084  -139.73309494    -0.01173410  0.07448016  0.08082817  0.00898091  0.26386262  0.30000000  0.13416408   1010.87
  67  -139.73309494  -139.73328658    -0.00019164  0.00561365  0.00957780  0.00106420  0.01616724  0.03118366  0.01394576   1025.90
 Freezing grid
  68  -139.73328658  -139.73320907     0.00007751  0.00164650  0.00210792  0.00023421  0.00346274  0.00533071  0.00238397   1041.12
  69  -139.73320907  -139.72328792     0.00992115  0.00130832  0.00202909  0.00022545  0.20387182  0.30000000  0.13416408   1056.13
  70  -139.72328792  -139.71408950     0.00919842  0.05141905  0.08618578  0.00957620  0.18767644  0.30000000  0.13416408   1071.04
  71  -139.71408950  -139.72820100    -0.01411150  0.07290773  0.09328131  0.01036459  0.23631402  0.30000000  0.13416408   1085.92
  72  -139.72820100  -139.72680722     0.00139378  0.05007505  0.06311607  0.00701290  0.15377699  0.30000000  0.13416408   1101.16
  73  -139.72680722  -139.72049988     0.00630734  0.07635930  0.10107979  0.01123109  0.20001502  0.30000000  0.13416408   1116.34
  74  -139.72049988  -139.71828787     0.00221201  0.09756312  0.12981975  0.01442442  0.22526923  0.30000000  0.13416408   1131.53
  75  -139.71828787  -139.73094194    -0.01265407  0.12234215  0.13236207  0.01470690  0.16383469  0.30000000  0.13416408   1146.72
  76  -139.73094194  -139.72395171     0.00699023  0.04964499  0.05763341  0.00640371  0.23324838  0.30000000  0.13416408   1161.67
  77  -139.72395171  -139.72565812    -0.00170640  0.06540700  0.07606871  0.00845208  0.17174249  0.30000000  0.13416408   1176.76
  78  -139.72565812  -139.72401204     0.00164608  0.08174609  0.09816456  0.01090717  0.22860149  0.30000000  0.13416408   1191.89
  79  -139.72401204  -139.71827389     0.00573815  0.06987490  0.10400752  0.01155639  0.19230049  0.30000000  0.13416408   1206.98
  80  -139.71827389  -139.72550307    -0.00722918  0.09897062  0.14454598  0.01606066  0.22998296  0.30000000  0.13416408   1222.04
  81  -139.72550307  -139.72889130    -0.00338823  0.04525043  0.06367388  0.00707488  0.22179646  0.30000000  0.13416408   1236.82
  82  -139.72889130  -139.73100331    -0.00211201  0.04444129  0.07014509  0.00779390  0.04932307  0.07926749  0.03544950   1251.65
  83  -139.73100331  -139.72972405     0.00127926  0.03458869  0.03872629  0.00430292  0.13832323  0.19237412  0.08603232   1266.74
  84  -139.72972405  -139.72491417     0.00480988  0.04459620  0.06513085  0.00723676  0.22458405  0.30000000  0.13416408   1281.59
  85  -139.72491417  -139.72747072    -0.00255654  0.06956502  0.09495868  0.01055096  0.19738908  0.29496462  0.13191219   1296.69
  86  -139.72747072  -139.73046959    -0.00299888  0.06513377  0.07612981  0.00845887  0.22813749  0.30000000  0.13416408   1312.40
  87  -139.73046959  -139.71859647     0.01187312  0.04686328  0.05038268  0.00559808  0.24052026  0.30000000  0.13416408   1327.29
  88  -139.71859647  -139.70582256     0.01277392  0.06897738  0.09384115  0.01042679  0.19743892  0.30000000  0.13416408   1342.05
  89  -139.70582256  -139.72309821    -0.01727565  0.10191450  0.11643402  0.01293711  0.18466254  0.30000000  0.13416408   1356.74
  90  -139.72309821  -139.73224238    -0.00914417  0.06723719  0.09385526  0.01042836  0.23148548  0.30000000  0.13416408   1371.66
  91  -139.73224238  -139.71496884     0.01727354  0.02743202  0.03743369  0.00415930  0.18597634  0.30000000  0.13416408   1386.65
  92  -139.71496884  -139.72597984    -0.01101099  0.11901838  0.16968676  0.01885408  0.13899346  0.18495150  0.08271282   1401.50
  93  -139.72597984  -139.72017901     0.00580082  0.09004971  0.11283572  0.01253730  0.19460725  0.30000000  0.13416408   1416.52
  94  -139.72017901  -139.73004745    -0.00986844  0.13663842  0.17091668  0.01899074  0.11652430  0.18432251  0.08243153   1431.55
  95  -139.73004745  -139.72549509     0.00455236  0.04224191  0.05482923  0.00609214  0.23598127  0.30000000  0.13416408   1446.32
  96  -139.72549509  -139.73124894    -0.00575385  0.05918597  0.06831799  0.00759089  0.17682306  0.26651771  0.11919034   1461.27
  97  -139.73124894  -139.71781376     0.01343518  0.03314746  0.04628813  0.00514313  0.17420963  0.30000000  0.13416408   1476.17
  98  -139.71781376  -139.72040806    -0.00259430  0.07426577  0.10721334  0.01191259  0.25706987  0.30000000  0.13416408   1490.90
  99  -139.72040806  -139.68768220     0.03272586  0.12302699  0.14667495  0.01629722  0.28509743  0.30000000  0.13416408   1505.91
 100  -139.68768220  -139.70765390    -0.01997170  0.38352450  0.39075755  0.04341751  0.21334712  0.30000000  0.13416408   1520.87
 ? Warning
 ? No convergence in max. number of iterations

 END OF GEOMETRY OPTIMIZATION.

 Current geometry (xyz format, in Angstrom)

    5
 KS-SCF000/DEF2-TZVP  ENERGY=-139.70765390
 C         -0.0226740341       -0.0308420865       -0.7586150504
 H          0.3805394022        1.0323797053       -1.0587435155
 F          0.0018052203        0.0037952663        0.6470184987
 H          0.7847590336       -0.6335432946       -1.0388012371
 H         -0.9293526004       -0.1031491129       -1.0666312111

 **********************************************************************************************************************************

 Geometry written to block  1 of record 700


 **********************************************************************************************************************************
 DATASETS  * FILE   NREC   LENGTH (MB)   RECORD NAMES
              1      21       52.35       500      610      700      900      700(1)   950      970     1000      129      960   
                                          VAR    BASINP    GEOM    SYMINP    GEOM     ZMAT    AOBASIS   BASIS     P2S    ABASIS    
                                         1100     1400     1410     1200     1210     1080     1600     1650     1300     1700   
                                           S        T        V       H0       H01     AOSYM     SMH    MOLCAS    ERIS     OPER   
                                         1800   
                                         GRID   

              2       6        3.09       700     1000      520     1800     2100      700(1)
                                         GEOM     BASIS   MCVARS    GRID      RKS     GEOM   

 PROGRAMS   *        TOTAL      OPTG    KS-SCF       INT
 CPU TIMES  *      1526.50   1520.87      2.51      2.40
 REAL TIME  *      1562.18 SEC
 DISK USED  *       122.57 MB
 **********************************************************************************************************************************


 PROGRAM * HESSIAN

 Computing numerical hessian using default procedure for command KS-SCF

 Using AUTO symmetry option

 Running default procedure: KS-SCF000
 

 Recomputing wavefunction at reference geometry

 Numerically approximating hessian using central gradient differences

 Task list generated. Total number of displacements:     30

   20 tasks completed, CPU=1m 14s Elapsed=1m 14s
 Tasks on processor    0 finished.  CPU=    117.99 sec, Elapsed=    118.94 sec. All tasks on all processors finished.

 KS-SCF hessian saved to record  5300.2

 PROGRAM * FREQUENCIES (Calculation of harmonic vibrational spectra for KS-SCF)


 Permanent Dipole Moment [debye]
   1-  3   -0.024188   -0.050517   -1.910019

 Dipole Moment Norm    1.9108397 [debye]

 Dipole Moment Derivatives [debye/ang]
                   1             2             3             4             5             6             7             8
         1     1.1966981     0.0784665    -0.3743768     0.2104996    -0.3359430     0.0573512    -1.3955965     0.0375022
         2     0.0211953     1.6172517    -0.3568898    -0.3591743    -0.7248026     0.1275659     0.0324095    -1.2813792
         3    -0.1947325    -0.0549522     4.6100095     0.1732318     0.4513567    -0.0312313    -0.0097514    -0.0677977
                   9            10            11            12            13            14            15
         1     0.2883467     0.0875290     0.3364385    -0.0182240    -0.0990639    -0.1165699     0.0465268
         2     0.3624757     0.4217470     0.0715595    -0.0576184    -0.1159076     0.3169677    -0.0759202
         3    -4.5965333     0.2427116    -0.2458089     0.0669869    -0.2114470    -0.0825746    -0.0490711

 Projecting out rotations and translations

   Low Vibration      Wavenumber
        Nr             [1/cm] 
        1                0.00
        2                0.00
        3                0.00
        4                0.00
        5                0.00
        6                0.00

     Vibration        Wavenumber
        Nr             [1/cm] 
        1              384.13
        2              635.70
        3              992.99
        4             1272.32
        5             1424.87
        6             1473.91
        7             2385.14
        8             3505.76
        9             4495.93

 FREQUENCIES * CALCULATION OF NORMAL MODES FOR KS-SCF


 Atomic Coordinates

  Nr  Atom  Charge       X              Y              Z

   1   C     6.00   -0.042847715   -0.058283097   -1.433574679
   2   H     1.00    0.719115250    1.950914900   -2.000735280
   3   F     9.00    0.003411372    0.007172014    1.222687760
   4   H     1.00    1.482979647   -1.197223315   -1.963049836
   5   H     1.00   -1.756221888   -0.194923573   -2.015640865

 Gradient norm at reference geometry: 0.73853D+00

 ?WARNING: GRADIENT NORM NOT ZERO!

 Normal Modes

                              1 A         2 A         3 A         4 A         5 A  
 Wavenumbers [cm-1]          384.13      635.70      992.99     1272.32     1424.87
 Intensities [km/mol]         10.47        1.31      106.74        4.29        1.25
 Intensities [relative]        9.80        1.23      100.00        4.02        1.17
           CX1              0.07727     0.02064     0.02480    -0.04792    -0.03497
           CY1              0.03324    -0.12555     0.00688     0.02434    -0.02928
           CZ1             -0.08538    -0.00421     0.20304    -0.00200    -0.06347
           HX2             -0.00246    -0.18658     0.00032     0.03629     0.09822
           HY2              0.01351     0.08029     0.01132    -0.06161     0.15369
           HZ2             -0.11971     0.15214     0.09267    -0.30473     0.83954
           FX3             -0.03477    -0.01058    -0.01216     0.01780     0.01948
           FY3             -0.00790     0.02230    -0.00056    -0.02880     0.02440
           FZ3              0.01960    -0.00382    -0.14545    -0.03146    -0.02590
           HX4             -0.04105     0.25438    -0.07367     0.30446     0.03010
           HY4             -0.12973     0.29656    -0.02513     0.11547    -0.12180
           HZ4             -0.06216    -0.20265    -0.03740     0.80571     0.31651
           HX5             -0.22102    -0.11405     0.00721    -0.10576    -0.07908
           HY5             -0.13053     0.69757    -0.05765     0.19935    -0.14321
           HZ5              0.82898     0.17257     0.26894     0.11589     0.08783

                              6 A         7 A         8 A         9 A  
 Wavenumbers [cm-1]         1473.91     2385.14     3505.76     4495.93
 Intensities [km/mol]          5.98       50.56       14.92        4.95
 Intensities [relative]        5.60       47.37       13.98        4.64
           CX1             -0.06800    -0.02180    -0.05109    -0.08019
           CY1             -0.01335    -0.06275     0.04591    -0.00357
           CZ1              0.00378     0.01298     0.02325    -0.02402
           HX2              0.64954     0.31580    -0.00688    -0.00266
           HY2             -0.23146     0.87871     0.00555     0.00735
           HZ2              0.01854    -0.23963    -0.00126    -0.00009
           FX3             -0.00107    -0.00026    -0.00022    -0.00003
           FY3              0.00564    -0.00089     0.00016     0.00010
           FZ3              0.00234     0.00462     0.00115    -0.00011
           HX4              0.26315    -0.02869     0.73584     0.06263
           HY4              0.51667    -0.06039    -0.55319    -0.04565
           HZ4             -0.22024     0.00357    -0.25874    -0.01879
           HX5             -0.08291    -0.02266    -0.11662     0.89546
           HY5             -0.23255    -0.05448    -0.00203     0.07886
           HZ5              0.11263    -0.00557    -0.03860     0.30685


 Normal Modes of low/zero frequencies

                                  1           2           3           4           5
 Wavenumbers [cm-1]            0.00        0.00        0.00        0.00        0.00
 Intensities [km/mol]          0.00        0.00        0.00        0.00        0.00
 Intensities [relative]        0.00        0.00        0.00        0.00        0.00
           CX1              0.19231     0.01686     0.00142     0.00471     0.09975
           CY1             -0.13683     0.02125     0.00885    -0.00828     0.05334
           CZ1              0.01906     0.14614     0.00072    -0.02598    -0.08305
           HX2              0.05503     0.31379    -0.08094     0.03186     0.55192
           HY2             -0.09702    -0.08870    -0.00673    -0.00588    -0.10541
           HZ2             -0.02435     0.15557    -0.16512     0.01899    -0.03793
           FX3              0.01534     0.02614     0.13507     0.17612    -0.01128
           FY3             -0.01048     0.00209     0.17799    -0.13341     0.03126
           FZ3              0.01903     0.14645    -0.00578    -0.02588    -0.08057
           HX4              0.32500    -0.15134     0.00473    -0.06493    -0.11656
           HY4             -0.02919    -0.20173     0.01597    -0.03170    -0.26735
           HZ4              0.16992     0.14108    -0.00506    -0.17629    -0.01658
           HX5              0.24167    -0.00325    -0.02461    -0.03670     0.09818
           HY5             -0.31190     0.27709    -0.07352     0.07281     0.41888
           HZ5             -0.08514     0.14526     0.09669     0.07689    -0.16424

                                  6
 Wavenumbers [cm-1]            0.00
 Intensities [km/mol]          0.00
 Intensities [relative]        0.00
           CX1              0.10688
           CY1              0.19123
           CZ1              0.01320
           HX2             -0.10538
           HY2              0.32219
           HZ2              0.19198
           FX3              0.01273
           FY3             -0.00696
           FZ3              0.01973
           HX4              0.25496
           HY4              0.40703
           HZ4             -0.02429
           HX5              0.14156
           HY5              0.03903
           HZ5             -0.05315


 Frequencies dumped to record   5400.2

 Zero point energy:  0.03775097 [H]     8285.38 [1/CM]       99.12 [KJ/MOL]

 Recomputing wavefunction at initial geometry


 **********************************************************************************************************************************
 DATASETS  * FILE   NREC   LENGTH (MB)   RECORD NAMES
              1      21       52.36       500      610      700      900      700(1)   950      970     1000      129      960   
                                          VAR    BASINP    GEOM    SYMINP    GEOM     ZMAT    AOBASIS   BASIS     P2S    ABASIS    
                                         1100     1400     1410     1200     1210     1080     1600     1650     1300     1700   
                                           S        T        V       H0       H01     AOSYM     SMH    MOLCAS    ERIS     OPER   
                                         1800   
                                         GRID   

              2      10        3.35       700     1000      520     1800     2100      700(1)   701     5300     5450     5400   
                                         GEOM     BASIS   MCVARS    GRID      RKS     GEOM     GEOM     HESS     NMOD     FREQ   

 PROGRAMS   *        TOTAL      FREQ      OPTG    KS-SCF       INT
 CPU TIMES  *      1648.51    121.95   1520.87      2.51      2.40
 REAL TIME  *      1686.28 SEC
 DISK USED  *       123.09 MB
 **********************************************************************************************************************************

 Density functional group M06=XC-M06
 Functional: XC-M06(via MFM 1.6)                                               Gradient terms: 1
 Use libxcgrid:  F
 Use grid at  1800.2
 

 Exact exchange will be calculated, factor:  0.2700

 Functional: XC-M06                    Factor:  1.0000
 
   67514 words reserved for DFT integration

 PROGRAM * RKS-SCF (Restricted closed shell Kohn-Sham)     Authors: W. Meyer, H.-J. Werner, P.J. Knowles, 1993

 NUMBER OF ELECTRONS:       9+    9-    SPACE SYMMETRY=1    SPIN SYMMETRY: Singlet 
 CONVERGENCE THRESHOLDS:    1.00E-06 (Density)    1.00E-06 (Energy)
 MAX. NUMBER OF ITERATIONS:       60
 INTERPOLATION TYPE:            DIIS
 INTERPOLATION STEPS:              2 (START)      1 (STEP)
 LEVEL SHIFTS:                  0.00 (CLOSED)  0.00 (OPEN) 



 Use fine grid record 1800.2 for energy threshold  1.0D-06
 Orbital guess generated from atomic densities. Full valence occupancy:    9

 Molecular orbital dump at record        2101.2

 Initial occupancy:   9

 ITERATION    DDIFF          GRAD             ENERGY        2-EL.EN.            DIPOLE MOMENTS         DIIS   ORB.
    1      0.000D+00      0.000D+00      -139.67240346    208.261136    0.09080    0.09984   -0.98054    0    start
    2      0.000D+00      0.812D-02      -139.66964294    199.999893   -0.11511   -0.16048   -0.49568    1    diag
    3      0.808D-02      0.934D-02      -139.70690612    204.447823   -0.01273   -0.02401   -0.77867    2    diag
    4      0.418D-02      0.111D-02      -139.70733667    204.317532   -0.00241   -0.01311   -0.74000    3    diag
    5      0.496D-03      0.494D-03      -139.70743728    204.319855   -0.00859   -0.02142   -0.75184    4    diag
    6      0.194D-03      0.709D-04      -139.70743982    204.340589   -0.00763   -0.01993   -0.75275    5    diag
    7      0.446D-04      0.573D-05      -139.70743983    204.340176   -0.00766   -0.02005   -0.75258    6    diag
    8      0.537D-05      0.988D-06      -139.70743983    204.340513   -0.00766   -0.02002   -0.75264    7    diag
    9      0.903D-06      0.178D-06      -139.70743983    204.340473   -0.00766   -0.02003   -0.75262    0    orth

 Final occupancy:   9

 !RKS STATE  1.1 Energy              -139.707439833044
 Nuclear energy                        37.48194400
 One-electron energy                 -266.78628907
 Two-electron energy                  102.17023650
 SCF exchange energy                  -16.33565794     Factor= 0.2700
 Density functional                   -12.57333126     XC-M06=-12.57333126
 Virial quotient                       -1.00233653
 !RKS STATE  1.1 Dipole moment         -0.00765697    -0.02002762    -0.75262092
 Dipole moment /Debye                  -0.01946081    -0.05090181    -1.91284627

 Orbital energies:

         1.1          2.1          3.1          4.1          5.1          6.1          7.1          8.1          9.1         10.1
    -24.747763   -10.302983    -1.214470    -0.725311    -0.526809    -0.498730    -0.478142    -0.378063    -0.345365     0.047064

        11.1
      0.071656


 HOMO      9.1    -0.345365 =      -9.3978eV
 LUMO     10.1     0.047064 =       1.2807eV
 LUMO-HOMO         0.392429 =      10.6785eV


 **********************************************************************************************************************************
 DATASETS  * FILE   NREC   LENGTH (MB)   RECORD NAMES
              1      21       52.36       500      610      700      900      700(1)   950      970     1000      129      960   
                                          VAR    BASINP    GEOM    SYMINP    GEOM     ZMAT    AOBASIS   BASIS     P2S    ABASIS    
                                         1100     1400     1410     1200     1210     1080     1600     1650     1300     1700   
                                           S        T        V       H0       H01     AOSYM     SMH    MOLCAS    ERIS     OPER   
                                         1800   
                                         GRID   

              2      11        5.97       700     1000      520     1800     2100      700(1)   701     5300     5450     5400   
                                         GEOM     BASIS   MCVARS    GRID      RKS     GEOM     GEOM     HESS     NMOD     FREQ   
                                         2101   
                                          RKS  

 PROGRAMS   *        TOTAL    KS-SCF      FREQ      OPTG    KS-SCF       INT
 CPU TIMES  *      1650.54      1.98    121.95   1520.87      2.51      2.40
 REAL TIME  *      1688.36 SEC
 DISK USED  *       123.09 MB
 **********************************************************************************************************************************


 PROGRAM * SURF (Surface generation)   Authors: G. Rauhut 2004, T. Hrenar 2005, M. Neff 2012, D. Oschetzki 2013

 Freezing grid

 Reference geometry in SURF calculation

   1  C     6.00    -1.433574679   -0.042847715   -0.058283097
   2  H     1.00    -2.000735280    0.719115250    1.950914900
   3  F     9.00     1.222687760    0.003411372    0.007172014
   4  H     1.00    -1.963049836    1.482979647   -1.197223315
   5  H     1.00    -2.015640865   -1.756221888   -0.194923573


 The phase of the following normal coordinates was changed:
  8

 Information about detected symmetry elements:

 Detected point group: C1 

 Starting mppx-calculation of energy surfaces:

 Calculating 1D potential

 1D:   9  Points:   6 Conv: 0.00906015 0.00906059
 1D:   8  Points:   6 Conv: 0.00229188 0.00229189
 1D:   7  Points:   6 Conv: 0.00211404 0.00211400
 1D:   6  Points:   6 Conv: 0.00099871 0.00099867
 1D:   5  Points:   6 Conv: 0.00054806 0.00054808
 1D:   4  Points:   6 Conv: 0.00115044 0.00115031
 1D:   3  Points:   6 Conv: 0.00076678 0.00076678
 1D:   2  Points:   6 Conv: 0.00205405 0.00205401
 1D:   1  Points:   8 Conv: 0.00017025 0.00017022

 The determined shift and scalnm parameters are:

 scalnm,mode= 1,sfac=1.000,shift= 0
 scalnm,mode= 2,sfac=1.000,shift= 0
 scalnm,mode= 3,sfac=1.000,shift= 0
 scalnm,mode= 4,sfac=1.000,shift= 0
 scalnm,mode= 5,sfac=1.000,shift= 0
 scalnm,mode= 6,sfac=1.000,shift= 0
 scalnm,mode= 7,sfac=1.000,shift= 0
 scalnm,mode= 8,sfac=1.000,shift= 0
 scalnm,mode= 9,sfac=1.500,shift= 0

 Calculating 2D coupling potential

 2D:   9   8  Points:  16 Conv: 0.00002493 0.00002514
 2D:   9   7  Points:  16 Conv: 0.00000231 0.00000237
 2D:   9   6  Points:  16 Conv: 0.00000304 0.00000307
 2D:   9   5  Points:  16 Conv: 0.00000146 0.00000155
 2D:   9   4  Points:  16 Conv: 0.00000664 0.00000676
 2D:   9   3  Points:  16 Conv: 0.00000241 0.00000231
 2D:   9   2  Points:  16 Conv: 0.00006852 0.00006958
 2D:   8   7  Points:  16 Conv: 0.00000106 0.00000099
 2D:   8   6  Points:  16 Conv: 0.00001915 0.00001884
 2D:   8   5  Points:  16 Conv: 0.00000263 0.00000268
 2D:   8   4  Points:  16 Conv: 0.00001433 0.00001475
 2D:   8   3  Points:  16 Conv: 0.00000371 0.00000374
 2D:   8   2  Points:  16 Conv: 0.00001611 0.00001667
 2D:   8   1  Points:  16 Conv: 0.00001027 0.00000964
 2D:   7   6  Points:  16 Conv: 0.00000509 0.00000515
 2D:   7   5  Points:  16 Conv: 0.00000732 0.00000765
 2D:   7   4  Points:  16 Conv: 0.00000308 0.00000289
 2D:   7   3  Points:  16 Conv: 0.00000250 0.00000258
 2D:   7   2  Points:  16 Conv: 0.00000775 0.00000794
 2D:   7   1  Points:  16 Conv: 0.00000449 0.00000458
 2D:   6   5  Points:  16 Conv: 0.00000496 0.00000512
 2D:   6   4  Points:  16 Conv: 0.00001875 0.00001847
 2D:   6   3  Points:  16 Conv: 0.00000311 0.00000315
 2D:   6   2  Points:  16 Conv: 0.00000959 0.00001078
 2D:   6   1  Points:  16 Conv: 0.00000381 0.00000293
 2D:   5   3  Points:  16 Conv: 0.00000296 0.00000264
 2D:   5   2  Points:  16 Conv: 0.00001366 0.00001393
 2D:   4   3  Points:  16 Conv: 0.00000423 0.00000346
 2D:   4   2  Points:  16 Conv: 0.00000532 0.00000878
 2D:   4   1  Points:  16 Conv: 0.00000686 0.00000666
 2D:   3   2  Points:  16 Conv: 0.00000444 0.00000368
 2D:   3   1  Points:  16 Conv: 0.00000755 0.00000737
 2D:   9   1  Points:  36 Conv: 0.00012321 0.00012314
 2D:   5   4  Points:  36 Conv: 0.00001615 0.00001616
 2D:   5   1  Points:  36 Conv: 0.00000686 0.00000697
 2D:   2   1  Points:  64 Conv: 0.00002457 0.00002460

 Calculating 3D coupling potential

 3D:   9   8   7  Points:    8 Conv: 0.00000057
 3D:   9   8   6  Points:    8 Conv: 0.00000052
 3D:   9   8   5  Points:    8 Conv: 0.00000073
 3D:   9   8   4  Points:    8 Conv: 0.00000369
 3D:   9   8   3  Points:    8 Conv: 0.00000143
 3D:   9   8   2  Points:    8 Conv: 0.00000744
 3D:   9   8   1  Points:    8 Conv: 0.00000288
 3D:   9   7   6  Points:    8 Conv: 0.00000296
 3D:   9   7   5  Points:    8 Conv: 0.00000163
 3D:   9   7   4  Points:    8 Conv: 0.00000083
 3D:   9   7   3  Points:    8 Conv: 0.00000005
 3D:   9   7   2  Points:    8 Conv: 0.00000444
 3D:   9   7   1  Points:    8 Conv: 0.00000330
 3D:   9   6   5  Points:    8 Conv: 0.00000261
 3D:   9   6   4  Points:    8 Conv: 0.00000269
 3D:   9   6   3  Points:    8 Conv: 0.00000188
 3D:   9   6   2  Points:    8 Conv: 0.00001865
 3D:   9   6   1  Points:    8 Conv: 0.00001591
 3D:   9   5   4  Points:    8 Conv: 0.00000199
 3D:   9   5   3  Points:    8 Conv: 0.00000199
 3D:   9   5   2  Points:    8 Conv: 0.00000529
 3D:   9   5   1  Points:    8 Conv: 0.00001974
 3D:   9   4   3  Points:    8 Conv: 0.00000162
 3D:   9   4   2  Points:    8 Conv: 0.00001679
 3D:   9   4   1  Points:    8 Conv: 0.00001163
 3D:   9   3   2  Points:    8 Conv: 0.00000499
 3D:   9   3   1  Points:    8 Conv: 0.00000768
 3D:   9   2   1  Points:    8 Conv: 0.00001114
 3D:   8   7   6  Points:    8 Conv: 0.00000255
 3D:   8   7   5  Points:    8 Conv: 0.00000101
 3D:   8   7   4  Points:    8 Conv: 0.00000057
 3D:   8   7   3  Points:    8 Conv: 0.00000030
 3D:   8   7   2  Points:    8 Conv: 0.00000096
 3D:   8   7   1  Points:    8 Conv: 0.00000071
 3D:   8   6   5  Points:    8 Conv: 0.00000178
 3D:   8   6   4  Points:    8 Conv: 0.00000022
 3D:   8   6   3  Points:    8 Conv: 0.00000013
 3D:   8   6   2  Points:    8 Conv: 0.00001138
 3D:   8   6   1  Points:    8 Conv: 0.00000583
 3D:   8   5   4  Points:    8 Conv: 0.00000858
 3D:   8   5   3  Points:    8 Conv: 0.00000327
 3D:   8   5   2  Points:    8 Conv: 0.00000358
 3D:   8   5   1  Points:    8 Conv: 0.00000137
 3D:   8   4   3  Points:    8 Conv: 0.00000855
 3D:   8   4   2  Points:    8 Conv: 0.00000266
 3D:   8   4   1  Points:    8 Conv: 0.00000266
 3D:   8   3   2  Points:    8 Conv: 0.00000124
 3D:   8   3   1  Points:    8 Conv: 0.00000132
 3D:   8   2   1  Points:    8 Conv: 0.00000700
 3D:   7   6   5  Points:    8 Conv: 0.00000102
 3D:   7   6   4  Points:    8 Conv: 0.00000023
 3D:   7   6   3  Points:    8 Conv: 0.00000059
 3D:   7   6   2  Points:    8 Conv: 0.00000104
 3D:   7   6   1  Points:    8 Conv: 0.00000139
 3D:   7   5   4  Points:    8 Conv: 0.00000182
 3D:   7   5   3  Points:    8 Conv: 0.00000237
 3D:   7   5   2  Points:    8 Conv: 0.00000357
 3D:   7   5   1  Points:    8 Conv: 0.00000176
 3D:   7   4   3  Points:    8 Conv: 0.00000077
 3D:   7   4   2  Points:    8 Conv: 0.00000278
 3D:   7   4   1  Points:    8 Conv: 0.00000118
 3D:   7   3   2  Points:    8 Conv: 0.00000117
 3D:   7   3   1  Points:    8 Conv: 0.00000100
 3D:   7   2   1  Points:    8 Conv: 0.00000214
 3D:   6   5   4  Points:    8 Conv: 0.00000307
 3D:   6   5   3  Points:    8 Conv: 0.00000122
 3D:   6   5   2  Points:    8 Conv: 0.00000057
 3D:   6   5   1  Points:    8 Conv: 0.00000190
 3D:   6   4   3  Points:    8 Conv: 0.00000182
 3D:   6   4   2  Points:    8 Conv: 0.00000256
 3D:   6   4   1  Points:    8 Conv: 0.00000102
 3D:   6   3   2  Points:    8 Conv: 0.00000159
 3D:   6   3   1  Points:    8 Conv: 0.00000027
 3D:   6   2   1  Points:    8 Conv: 0.00000167
 3D:   5   4   3  Points:    8 Conv: 0.00000130
 3D:   5   4   2  Points:    8 Conv: 0.00000064
 3D:   5   4   1  Points:    8 Conv: 0.00000158
 3D:   5   3   2  Points:    8 Conv: 0.00000031
 3D:   5   3   1  Points:    8 Conv: 0.00000016
 3D:   5   2   1  Points:    8 Conv: 0.00000135
 3D:   4   3   2  Points:    8 Conv: 0.00000146
 3D:   4   3   1  Points:    8 Conv: 0.00000206
 3D:   4   2   1  Points:    8 Conv: 0.00000197
 3D:   3   2   1  Points:    8 Conv: 0.00000230

 Grid calculation completed

 Formal number of grid points:    353424
 Actual number of grid points:      1592 Time (sec):       1754.5
 Number of 1D grid points:           236 Time (sec):        283.5
 Number of 2D grid points:           684 Time (sec):        744.1
 Number of 3D grid points:           672 Time (sec):        726.9

 CPU-Time for SURF calculation:       1758.8 sec.


 **********************************************************************************************************************************
 DATASETS  * FILE   NREC   LENGTH (MB)   RECORD NAMES
              1      21       52.66       500      610      700      900      700(1)   950      970     1000      129      960   
                                          VAR    BASINP    GEOM    SYMINP    GEOM     ZMAT    AOBASIS   BASIS     P2S    ABASIS    
                                         1100     1400     1410     1200     1210     1080     1600     1650     1300     1700   
                                           S        T        V       H0       H01     AOSYM     SMH    MOLCAS    ERIS     OPER   
                                         1800   
                                         GRID   

              2      14       84.54       700     1000      520     1800     2100      700(1)   701     5300     5450     5400   
                                         GEOM     BASIS   MCVARS    GRID      RKS     GEOM     GEOM     HESS     NMOD     FREQ   
                                         2101     5600     5650     5550   
                                          RKS     SURF    DIPOLE   VIBINFO    

 PROGRAMS   *        TOTAL      SURF       INT    KS-SCF       INT    KS-SCF       INT    KS-SCF       INT    KS-SCF       INT
 CPU TIMES  *      3409.43      8.87      2.31      1.98      2.30      2.00      2.33      1.98      2.29      1.98      2.30
 REAL TIME  *      3542.78 SEC
 DISK USED  *       204.54 MB
 **********************************************************************************************************************************


 PROGRAM * POLY (Transformation of PES grid representation to an analytic representation)   Authors: G. Rauhut 2008, M. Neff 2010, B. Ziegler 2019
 
 Reading potential information from:      5600.2
 Reading dipole information from:         5650.2
 
 Watson correction term has NOT been added to the potential.

 Time to compute the number of basis functions:    0.4 sec
 Number of basis functions:  5

        dim  chi_av       chi_max      time in sec      Surface

 Energy 1D   0.1174E-12   0.7180E-12     0.0            9
        2D   0.2291E-11   0.5419E-10     0.0            9  8
        3D   0.8019E-12   0.2717E-10     0.4            9  8  1

 Dipole 1D   0.5545E-10   0.7816E-09     0.0            9
        2D   0.1919E-09   0.1041E-07     0.1            8  9
        3D   0.5792E-10   0.3423E-08     1.2            9  8  4
 
 Harmonic frequencies obtained from polynomial fit

   Mode        Ref.         Fit

   9 A       4495.93     4492.23
   8 A       3505.76     3506.30
   7 A       2385.14     2398.15
   6 A       1473.91     1460.83
   5 A       1424.87     1412.01
   4 A       1272.32     1193.42
   3 A        992.99      992.58
   2 A        635.70      470.28
   1 A        384.13       48.46
 

 CPU-Time for POLY calculation:          2.3 sec.


 **********************************************************************************************************************************
 DATASETS  * FILE   NREC   LENGTH (MB)   RECORD NAMES
              1      21       52.66       500      610      700      900      700(1)   950      970     1000      129      960   
                                          VAR    BASINP    GEOM    SYMINP    GEOM     ZMAT    AOBASIS   BASIS     P2S    ABASIS    
                                         1100     1400     1410     1200     1210     1080     1600     1650     1300     1700   
                                           S        T        V       H0       H01     AOSYM     SMH    MOLCAS    ERIS     OPER   
                                         1800   
                                         GRID   

              2      16       85.02       700     1000      520     1800     2100      700(1)   701     5300     5450     5400   
                                         GEOM     BASIS   MCVARS    GRID      RKS     GEOM     GEOM     HESS     NMOD     FREQ   
                                         2101     5600     5650     5550     5750     5770   
                                          RKS     SURF    DIPOLE   VIBINFO   POLY      MU  

 PROGRAMS   *        TOTAL      POLY    KS-SCF       INT    KS-SCF       INT    KS-SCF       INT    KS-SCF       INT    KS-SCF
 CPU TIMES  *      3411.74      2.26      2.01      2.31      1.98      2.30      2.00      2.33      1.98      2.29      1.98
 REAL TIME  *      3545.17 SEC
 DISK USED  *       204.54 MB
 **********************************************************************************************************************************


 PROGRAM * VPT2 (2nd Order Vibrational Perturbation Theory)   Authors: R. Ramakrishnan, G. Rauhut 2015, B. Schroeder 2017

 Reading potential from record        5600.2

 Asymmetric top molecule


 Non-zero Coriolis zeta constants

   Modes        a             b             c

   9  8      0.039956     -0.011218     -0.038264
   9  7      0.002253     -0.005235      0.016442
   9  6     -0.152819      0.096906     -0.095139
   9  5     -0.103777      0.034914     -0.173074
   9  4      0.184014     -0.082597     -0.182908
   9  3     -0.063147      0.034146     -0.048313
   9  2      0.791886     -0.221901     -0.192585
   9  1     -0.138931      0.119029     -0.916444
   8  7      0.011806     -0.004623     -0.004885
   8  6     -0.600637     -0.253743     -0.093805
   8  5      0.021435      0.236490      0.271823
   8  4     -0.243498      0.420714      0.675667
   8  3      0.070846     -0.121560     -0.209447
   8  2     -0.345555     -0.250267     -0.112898
   8  1      0.167096      0.062675     -0.130550
   7  6     -0.694804     -0.036722     -0.174835
   7  5     -0.052249      0.806787     -0.299676
   7  4     -0.088921     -0.338662      0.109279
   7  3      0.017944     -0.079380      0.030392
   7  2      0.223599      0.180653     -0.002560
   7  1      0.047517     -0.085271      0.043656
   6  5      0.084681     -0.057630     -0.693041
   6  4     -0.230089      0.464745     -0.087078
   6  3      0.045359     -0.151787      0.152223
   6  2     -0.023353     -0.191350     -0.107368
   6  1     -0.056500     -0.198338      0.080783
   5  4     -0.047955     -0.174691      0.171960
   5  3      0.008155     -0.150115      0.116917
   5  2      0.078099     -0.285686     -0.092840
   5  1     -0.002359     -0.028550     -0.039754
   4  3     -0.012051      0.213276      0.150296
   4  2      0.069229     -0.284817      0.330251
   4  1     -0.039753      0.251899      0.016620
   3  2     -0.059308      0.178669      0.005612
   3  1     -0.000198     -0.128815      0.245094
   2  1      0.288014      0.686695      0.081988
 

 VPT2 Vibration-rotation interaction constants (in cm-1)

                       Harmonic                                Coriolis                                Anharmonic
           _________________________________       _________________________________       _________________________________

 Mode           A           B           C               A           B           C               A           B           C

   9       -0.006823   -0.000028   -0.000036       -0.028771   -0.000084   -0.000938        0.079451   -0.000014    0.001509
   8       -0.017213   -0.000038   -0.000064       -0.034000   -0.000565   -0.000899        0.087826    0.000024    0.000204
   7       -0.028455   -0.000146   -0.000059       -0.069042   -0.002503   -0.000422        0.127530   -0.002029   -0.003459
   6       -0.000577   -0.000146   -0.000124        0.044698   -0.003622   -0.028401        0.028621    0.002617    0.000880
   5       -0.010922   -0.000352   -0.000581        0.015093    0.001371    0.027993        0.024288    0.003974    0.003781
   4       -0.007721   -0.000432   -0.000845        0.038158    0.003280    0.000814        0.045514    0.006286    0.004654
   3       -0.000918   -0.003630   -0.003605        0.000122    0.000476    0.000246        0.026797    0.014104    0.013841
   2       -0.002818   -0.000221   -0.000204        0.043150   -0.004113    0.000708        0.074089    0.007863    0.006248
   1       -0.025634   -0.002708   -0.000194        0.049650    0.006664    0.003824       -0.386766    0.007954   -0.000640


                          Total
           _________________________________

 Mode           A           B           C

   9        0.043857   -0.000126    0.000535
   8        0.036613   -0.000579   -0.000759
   7        0.030034   -0.004677   -0.003940
   6        0.072743   -0.001151   -0.027644
   5        0.028459    0.004994    0.031193
   4        0.075951    0.009135    0.004623
   3        0.026001    0.010949    0.010483
   2        0.114421    0.003529    0.006752
   1       -0.362750    0.011910    0.002990


 VPT2 Quartic centrifugal distortion constants (in cm-1)

                  Tau               Tau'

    AAAA    -0.694162E-03     -0.694162E-03
    BBBB    -0.949722E-05     -0.949722E-05
    CCCC    -0.943936E-05     -0.943936E-05
    BBAA    -0.151902E-04     -0.230730E-03
    CCAA    -0.174335E-04     -0.569532E-04
    CCBB    -0.915436E-05     -0.965459E-05


 VPT2 Quartic centrifugal distortion constants in the Nielsen formalism (cm-1)


    DJ       0.237872E-05
    DK       0.103998E-03
    DJK      0.671633E-04
    R5      -0.108592E-04
    R6       0.582187E-08
    dJ       0.361619E-08


 VPT2 State-dependent vibrationally averaged rotational constants (in cm-1) 

   Ref.            5.36121     0.85466     0.84855

   |000000000>     5.32854     0.83767     0.83643
   |000000001>     5.28468     0.83780     0.83590
   |000000002>     5.24083     0.83793     0.83536
   |000000010>     5.29193     0.83825     0.83719
   |000000011>     5.24807     0.83838     0.83665
   |000000020>     5.25532     0.83883     0.83795
   |000000100>     5.29851     0.84235     0.84037
   |000000101>     5.25465     0.84248     0.83984
   |000000110>     5.26190     0.84293     0.84113
   |000000200>     5.26847     0.84703     0.84431
   |000001000>     5.25580     0.83882     0.86407
   |000001001>     5.21194     0.83895     0.86354
   |000001010>     5.21919     0.83940     0.86483
   |000001100>     5.22577     0.84350     0.86802
   |000002000>     5.18306     0.83997     0.89172
   |000010000>     5.30008     0.83268     0.80524
   |000010001>     5.25623     0.83281     0.80470
   |000010010>     5.26347     0.83326     0.80600
   |000010100>     5.27005     0.83736     0.80918
   |000011000>     5.22734     0.83383     0.83288
   |000020000>     5.27162     0.82769     0.77404
   |000100000>     5.25259     0.82854     0.83181
   |000100001>     5.20873     0.82866     0.83127
   |000100010>     5.21598     0.82912     0.83257
   |000100100>     5.22256     0.83322     0.83575
   |000101000>     5.17985     0.82969     0.85945
   |000110000>     5.22413     0.82354     0.80061
   |000200000>     5.17664     0.81940     0.82719
   |001000000>     5.30254     0.82672     0.82595
   |001000001>     5.25868     0.82685     0.82541
   |001000010>     5.26593     0.82730     0.82671
   |001000100>     5.27251     0.83140     0.82989
   |001001000>     5.22980     0.82787     0.85359
   |001010000>     5.27408     0.82173     0.79475
   |001100000>     5.22659     0.81759     0.82133
   |002000000>     5.27654     0.81577     0.81547
   |010000000>     5.21412     0.83414     0.82968
   |010000001>     5.17026     0.83427     0.82914
   |010000010>     5.17751     0.83472     0.83044
   |010000100>     5.18409     0.83882     0.83362
   |010001000>     5.14138     0.83529     0.85732
   |010010000>     5.18566     0.82915     0.79849
   |010100000>     5.13817     0.82501     0.82506
   |011000000>     5.18812     0.82319     0.81920
   |020000000>     5.09970     0.83062     0.82293
   |100000000>     5.69129     0.82576     0.83344
   |100000001>     5.64744     0.82589     0.83291
   |100000010>     5.65468     0.82634     0.83420
   |100000100>     5.66126     0.83044     0.83738
   |100001000>     5.61855     0.82691     0.86108
   |100010000>     5.66283     0.82077     0.80225
   |100100000>     5.61534     0.81663     0.82882
   |101000000>     5.66529     0.81481     0.82296
   |110000000>     5.57687     0.82223     0.82669
   |200000000>     6.05404     0.81385     0.83045


 VPT2 zero-point vibrational energy (in cm^-1)

 Harmonic:        7987.12868
 Anharmonic:       306.59944
 Kinetic:           31.97987
 Total:           8325.70799

 Results of VPT2 calculation (Frequencies in cm-1)


 Fundamentals

       Mode           Harmonic    Anharmonic     Intensity
       9^1             4492.23       4330.51      69943.55
       8^1             3506.30       3351.37        235.81
       6^1             1460.83       3171.01    3773980.17
       7^1             2398.15       2036.46      86527.29
       1^1               48.46       1936.59      18881.01
       5^1             1412.01       1233.21    4712450.87
       3^1              992.58        850.93     611516.94
       4^1             1193.42        363.33    4233028.15
       2^1              470.28       -282.10  -46103234.62


 Overtones

       Mode           Harmonic    Anharmonic     Intensity
       6^2             2921.66       6149.70          0.58
       1^2               96.92       4100.82        655.02
       7^2             4796.31       3592.48          0.09
       5^2             2824.01       2345.14          0.92
       3^2             1985.16       1615.86          1.58
       4^2             2386.84       -246.25         -1.10
       2^2              940.56      -1549.19        -30.90


 Combination bands

       Mode           Harmonic    Anharmonic     Intensity
  1^1  6^1 A           1509.29       7748.68         26.88
  5^1  6^1 A           2872.84       6589.12          0.26
  6^1  8^1             4967.13       6505.70          0.03
  1^1  9^1             4540.69       6336.08          0.41
  6^1  7^1 A           3858.99       5301.44          0.12
  1^1  8^1             3554.76       5256.67          0.38
  5^1  8^1             4918.31       4579.30          0.06
  3^1  8^1             4498.88       4214.95          5.39
  2^1  9^1             4962.51       3997.81          0.35
  3^1  6^1 A           2453.41       3695.69          0.50
  4^1  8^1             4699.72       3692.81          0.35
  1^1  7^1 A           2446.62       3499.37         92.45
  1^1  4^1 A           1241.88       3463.42         45.01
  4^1  6^1 A           2654.25       3339.51          0.23
  5^1  7^1 A           3810.16       3237.66          0.31
  1^1  3^1 A           1041.04       3034.01        119.61
  2^1  8^1             3976.58       3024.01          1.89
  3^1  7^1 A           3390.73       2850.52          0.33
  4^1  7^1 A           3591.57       2681.95          0.16
  2^1  6^1 A           1931.11       2349.42          0.54
  2^1  7^1 A           2868.43       2193.22          0.41
  3^1  5^1 A           2404.58       2151.62        444.00
  4^1  5^1 A           2605.42       1419.85          0.19
  1^1  5^1 A           1460.47       1339.42      16908.78
  3^1  4^1 A           2186.00       1092.07          0.05
  2^1  5^1 A           1882.29        673.50          0.08
  2^1  3^1 A           1462.86        663.85        177.81
  2^1  4^1 A           1663.70       -487.26         -0.10

 CPU-Time for VPT2 calculation:          0.0 sec.


 **********************************************************************************************************************************
 DATASETS  * FILE   NREC   LENGTH (MB)   RECORD NAMES
              1      21       52.66       500      610      700      900      700(1)   950      970     1000      129      960   
                                          VAR    BASINP    GEOM    SYMINP    GEOM     ZMAT    AOBASIS   BASIS     P2S    ABASIS    
                                         1100     1400     1410     1200     1210     1080     1600     1650     1300     1700   
                                           S        T        V       H0       H01     AOSYM     SMH    MOLCAS    ERIS     OPER   
                                         1800   
                                         GRID   

              2      16       85.02       700     1000      520     1800     2100      700(1)   701     5300     5450     5400   
                                         GEOM     BASIS   MCVARS    GRID      RKS     GEOM     GEOM     HESS     NMOD     FREQ   
                                         2101     5600     5650     5550     5750     5770   
                                          RKS     SURF    DIPOLE   VIBINFO   POLY      MU  

 PROGRAMS   *        TOTAL      VPT2      POLY    KS-SCF       INT    KS-SCF       INT    KS-SCF       INT    KS-SCF       INT
 CPU TIMES  *      3411.80      0.01      2.26      2.01      2.31      1.98      2.30      2.00      2.33      1.98      2.29
 REAL TIME  *      3545.23 SEC
 DISK USED  *       204.54 MB
 **********************************************************************************************************************************

 VPT2/DEF2-TZVP energy=      0.000000000000

            VPT2            POLY          KS-SCF          KS-SCF          KS-SCF          KS-SCF          KS-SCF          KS-SCF
   -139.71253296   -139.71253296   -139.71253296   -139.70976003   -139.70895284   -139.71318689   -139.70328288   -139.70761522
 **********************************************************************************************************************************
 Molpro calculation terminated with 1 warning(s)
