
 Primary working directories    : /jobfs/7633244.gadi-pbs/molpro.ki12Mdb35Y
 Secondary working directories  : /jobfs/7633244.gadi-pbs/molpro.ki12Mdb35Y
 Wavefunction directory         : /home/561/pk8622/wfu/
 Main file repository           : /jobfs/7633244.gadi-pbs/molpro.ki12Mdb35Y/

 id        : anu

 Nodes                            nprocs
 gadi-cpu-clx-1999.gadi.nci.org.au    4

 Using customized tuning parameters: mindgm=1; mindgv=20; mindgc=4; mindgr=1; noblas=0; minvec=7
 default implementation of scratch files=df  


 Variables initialized (934), CPU time= 0.08 sec
 ***,Geom opt + VPT2 for methanal
 
 memory,40,m
 basis=def2-TZVP
 
 orient,mass
 geomtyp=xyz
 geometry={
 4
 C         -0.09593        1.46711       -0.00063
 O         -0.50414        2.58940        0.27058
 H         -0.54473        0.85573       -0.79970
 H          0.74465        1.00141        0.53817
 }
 mass,iso
 
 ks,M06
 optg
 
 frequencies,symm=auto
 
 label1
 {ks,M06
 start,atden}
 
 surf,start1D=label1,type=qff,sym=auto
 poly,type=qff
 vpt2,combi=1
 Commands  initialized (763), CPU time= 0.02 sec, 617 directives.
 Default parameters read. Elapsed time= 0.08 sec

 Checking input...
 Passed
1


                                         ***  PROGRAM SYSTEM MOLPRO  ***
                                       Copyright, TTI GmbH Stuttgart, 2015
                                    Version 2019.2 linked Nov 21 2019 12:21:21


 **********************************************************************************************************************************
 LABEL *   Geom opt + VPT2 for methanal                                                  
  64 bit mppx version                                                                    DATE: 23-Jun-20          TIME: 15:13:24  
 **********************************************************************************************************************************

 SHA1:             8dbd9ae1082e4ce945b0f27595c9eb2d4aa09004
 **********************************************************************************************************************************

 Variable memory set to   40000000 words,  buffer space 

 SETTING BASIS          =    DEF2-TZVP
 SETTING GEOMTYP        =    XYZ
 ZCENTRE=MASS
 


 Using masses of most abundant isotopes

 **********************************************************************************************************************************


 Recomputing integrals since basis changed


 Using spherical harmonics

 Library entry C      S def2-TZVP            selected for orbital group  1
 Library entry C      P def2-TZVP            selected for orbital group  1
 Library entry C      D def2-TZVP            selected for orbital group  1
 Library entry C      F def2-TZVP            selected for orbital group  1
 Library entry O      S def2-TZVP            selected for orbital group  2
 Library entry O      P def2-TZVP            selected for orbital group  2
 Library entry O      D def2-TZVP            selected for orbital group  2
 Library entry O      F def2-TZVP            selected for orbital group  2
 Library entry H      S def2-TZVP            selected for orbital group  3
 Library entry H      P def2-TZVP            selected for orbital group  3


 PROGRAM * SEWARD (Integral evaluation for generally contracted gaussian basis sets)     Author: Roland Lindh, 1990

 Geometry written to block  1 of record 700

 Orientation using atomic masses  
 Molecule type: Asymmetric top
 Symmetry elements: X
 Rotational constants:      33.3607298     37.7190200    288.7219505 GHz

 Point group  Cs  



 ATOMIC COORDINATES

 NR  ATOM    CHARGE       X              Y              Z

   1  C       6.00    0.000000000   -0.000003657   -1.158837701
   2  O       8.00    0.000000000    0.000001066    1.155382599
   3  H       1.00    0.000000000   -1.760989299   -2.269333846
   4  H       1.00    0.000000000    1.761015913   -2.269339306

 Bond lengths in Bohr (Angstrom)

 1-2  2.314220300  1-3  2.081891476  1-4  2.081923087
     ( 1.224632644)     ( 1.101689525)     ( 1.101706252)

 Bond angles

  2-1-3  122.23608079   2-1-4  122.23547596   3-1-4  115.52844325

 NUCLEAR CHARGE:                   16
 NUMBER OF PRIMITIVE AOS:         118
 NUMBER OF SYMMETRY AOS:          108
 NUMBER OF CONTRACTIONS:           74   (   52A'  +   22A"  )
 NUMBER OF CORE ORBITALS:           2   (    2A'  +    0A"  )
 NUMBER OF VALENCE ORBITALS:       10   (    8A'  +    2A"  )


 NUCLEAR REPULSION ENERGY   30.94401836


 Eigenvalues of metric

         1 0.156E-02 0.441E-02 0.636E-02 0.656E-02 0.145E-01 0.160E-01 0.404E-01 0.590E-01
         2 0.621E-01 0.112E+00 0.173E+00 0.255E+00 0.333E+00 0.385E+00 0.411E+00 0.581E+00


 Contracted 2-electron integrals neglected if value below      1.0D-11
 AO integral compression algorithm  1   Integral accuracy      1.0D-11

     9.175 MB (compressed) written to integral file ( 46.7%)


 NUMBER OF SORTED TWO-ELECTRON INTEGRALS:    2028164.     BUFFER LENGTH:  32768
 NUMBER OF SEGMENTS:   1  SEGMENT LENGTH:    2028164      RECORD LENGTH: 524288

 Memory used in sort:       2.59 MW

 SORT1 READ     2457565. AND WROTE     1804750. INTEGRALS IN      6 RECORDS. CPU TIME:     0.05 SEC, REAL TIME:     0.08 SEC
 SORT2 READ     1804750. AND WROTE     2028164. INTEGRALS IN     35 RECORDS. CPU TIME:     0.07 SEC, REAL TIME:     0.11 SEC

 FILE SIZES:   FILE 1:    39.3 MBYTE,  FILE 4:    25.2 MBYTE,   TOTAL:     64.5 MBYTE

 OPERATOR DM      FOR CENTER  0  COORDINATES:    0.000000    0.000000    0.000000


 **********************************************************************************************************************************
 DATASETS  * FILE   NREC   LENGTH (MB)   RECORD NAMES
              1      19       37.57       500      610      700      900      950      970     1000      129      960     1100   
                                          VAR    BASINP    GEOM    SYMINP    ZMAT    AOBASIS   BASIS     P2S    ABASIS      S 
                                         1400     1410     1200     1210     1080     1600     1650     1300     1700   
                                           T        V       H0       H01     AOSYM     SMH    MOLCAS    ERIS     OPER   

 PROGRAMS   *        TOTAL       INT
 CPU TIMES  *         2.51      1.86
 REAL TIME  *         2.79 SEC
 DISK USED  *        64.88 MB
 **********************************************************************************************************************************

 Density functional group M06=XC-M06
 Functional: XC-M06(via MFM 1.6)                                               Gradient terms: 1
 Use libxcgrid:  F
 Use grid at  1800.2
 

 Exact exchange will be calculated, factor:  0.2700

 Functional: XC-M06                    Factor:  1.0000
 
 Generated new metagrid on record  1800.2 with target accuracy 1.0D-06 and 8798 points in CPU time    0.2
 Computed new grid on record 1800.1 in CPU time    0.2
   62265 words reserved for DFT integration

 PROGRAM * RKS-SCF (Restricted closed shell Kohn-Sham)     Authors: W. Meyer, H.-J. Werner, P.J. Knowles, 1993

 NUMBER OF ELECTRONS:       8+    8-
 CONVERGENCE THRESHOLDS:    1.00E-06 (Density)    1.00E-06 (Energy)
 MAX. NUMBER OF ITERATIONS:       60
 INTERPOLATION TYPE:            DIIS
 INTERPOLATION STEPS:              2 (START)      1 (STEP)
 LEVEL SHIFTS:                  0.00 (CLOSED)  0.00 (OPEN) 



 Use fine grid record 1800.2 for energy threshold  1.0D-06
 Orbital guess generated from atomic densities. Full valence occupancy:   10   2

 Molecular orbital dump at record        2100.2

 Initial occupancy:   7   1

 ITERATION    DDIFF          GRAD             ENERGY        2-EL.EN.            DIPOLE MOMENTS         DIIS   ORB.
    1      0.000D+00      0.000D+00      -114.42583566    168.757831    0.00000   -0.00000   -1.69363    0    start
    2      0.000D+00      0.144D-01      -114.23748149    158.587434    0.00000   -0.00002    0.74652    1    diag
    3      0.277D-01      0.309D-01      -114.48138222    164.317407    0.00000   -0.00001   -0.99927    2    diag
    4      0.203D-01      0.238D-02      -114.48296669    164.837072    0.00000   -0.00001   -0.92666    3    diag
    5      0.165D-02      0.823D-03      -114.48315646    164.709137    0.00000   -0.00001   -0.93861    4    diag
    6      0.364D-03      0.996D-04      -114.48315905    164.728151    0.00000   -0.00001   -0.94307    5    diag
    7      0.656D-04      0.107D-04      -114.48315908    164.728994    0.00000   -0.00001   -0.94323    6    diag
    8      0.612D-05      0.244D-05      -114.48315908    164.729244    0.00000   -0.00001   -0.94325    7    diag
    9      0.163D-05      0.669D-06      -114.48315908    164.729352    0.00000   -0.00001   -0.94328    8    diag
   10      0.404D-06      0.298D-07      -114.48315908    164.729336    0.00000   -0.00001   -0.94328    0    orth

 Final occupancy:   7   1

 !RKS STATE  1.1 Energy              -114.483159078411
 Nuclear energy                        30.94401836
 One-electron energy                 -216.94606096
 Two-electron energy                   82.36466804
 SCF exchange energy                  -14.05234418     Factor= 0.2700
 Density functional                   -10.84578451     XC-M06=-10.84578451
 Virial quotient                       -1.00460533
 !RKS STATE  1.1 Dipole moment          0.00000000    -0.00000861    -0.94327907
 Dipole moment /Debye                   0.00000000    -0.00002189    -2.39741922

 Orbital energies:

         1.1          2.1          3.1          4.1          5.1          6.1          7.1          8.1          9.1
    -19.231421   -10.342754    -1.075263    -0.654775    -0.510491    -0.468552    -0.290208     0.053302     0.106085

         1.2          2.2          3.2
     -0.416277    -0.053029     0.211818


 HOMO      7.1    -0.290208 =      -7.8970eV
 LUMO      2.2    -0.053029 =      -1.4430eV
 LUMO-HOMO         0.237179 =       6.4540eV


 **********************************************************************************************************************************
 DATASETS  * FILE   NREC   LENGTH (MB)   RECORD NAMES
              1      20       37.86       500      610      700      900      950      970     1000      129      960     1100   
                                          VAR    BASINP    GEOM    SYMINP    ZMAT    AOBASIS   BASIS     P2S    ABASIS      S 
                                         1400     1410     1200     1210     1080     1600     1650     1300     1700     1800   
                                           T        V       H0       H01     AOSYM     SMH    MOLCAS    ERIS     OPER     GRID   

              2       5        2.87       700     1000      520     1800     2100   
                                         GEOM     BASIS   MCVARS    GRID      RKS  

 PROGRAMS   *        TOTAL    KS-SCF       INT
 CPU TIMES  *         5.24      2.73      1.86
 REAL TIME  *         5.59 SEC
 DISK USED  *        64.88 MB
 **********************************************************************************************************************************


 PROGRAM * OPT (Geometry optimization)     Authors: F. Eckert and H.-J. Werner


 BFGS update of hessian

 *** Long output written to logfile /scratch/on41/pk8622/Test_Calcs/Molpro/VPT2/methanal_vpt2.log ***


 Geometry optimization using default procedure for command KS-SCF

 Geometry written to block  1 of record 700

 Making model hessian for cartesian coordinates

 Entering Rational Function Geometry Optimization

 ITER.   ENERGY(OLD)    ENERGY(NEW)      DE          GRADMAX     GRADNORM    GRADRMS     STEPMAX     STEPLEN     STEPRMS   CPU-time
   1  -114.48315908  -114.48477788    -0.00161880  0.07476917  0.07552824  0.01258804  0.03643181  0.05150136  0.02575068     11.04
   2  -114.48477788  -114.48495091    -0.00017303  0.01887541  0.01898776  0.00316463  0.01120857  0.01266536  0.00633268     21.83
 Freezing grid
   3  -114.48495091  -114.48497279    -0.00002188  0.00205996  0.00220312  0.00036719  0.00372460  0.00514330  0.00257165     32.98
   4  -114.48497279  -114.48497760    -0.00000481  0.00056653  0.00060521  0.00010087  0.00138244  0.00165332  0.00082666     43.65
   5  -114.48497760  -114.48497741     0.00000019  0.00001644  0.00002330  0.00000388  0.00006238  0.00007151  0.00003575     53.71

 END OF GEOMETRY OPTIMIZATION.

 Current geometry (xyz format, in Angstrom)

    4
 KS-SCF000/DEF2-TZVP  ENERGY=-114.48497741
 C          0.0000000000       -0.0000021530       -0.5943997941
 O          0.0000000000        0.0000100504        0.5959020263
 H          0.0000000000       -0.9394856585       -1.1898457197
 H          0.0000000000        0.9393517859       -1.1901327006

 **********************************************************************************************************************************

 Geometry written to block  1 of record 700


 **********************************************************************************************************************************
 DATASETS  * FILE   NREC   LENGTH (MB)   RECORD NAMES
              1      20       38.05       500      610      700      900      950      970     1000      129      960     1100   
                                          VAR    BASINP    GEOM    SYMINP    ZMAT    AOBASIS   BASIS     P2S    ABASIS      S 
                                         1400     1410     1200     1210     1080     1600     1650     1300     1700     1800   
                                           T        V       H0       H01     AOSYM     SMH    MOLCAS    ERIS     OPER     GRID   

              2       5        2.87       700     1000      520     1800     2100   
                                         GEOM     BASIS   MCVARS    GRID      RKS  

 PROGRAMS   *        TOTAL      OPTG    KS-SCF       INT
 CPU TIMES  *        59.00     53.71      2.73      1.86
 REAL TIME  *        60.91 SEC
 DISK USED  *        68.51 MB
 **********************************************************************************************************************************


 PROGRAM * HESSIAN

 Computing numerical hessian using default procedure for command KS-SCF

 Symmetry elements for unique displacements: X  

 Using AUTO symmetry option

 Running default procedure: KS-SCF000
 

 Recomputing wavefunction at reference geometry

 Numerically approximating hessian using central gradient differences

 Task list generated. Total number of displacements:     20

   18 tasks completed, CPU=1m 3s Elapsed=1m 4s
 Tasks on processor    0 finished.  CPU=     64.04 sec, Elapsed=     64.76 sec. All tasks on all processors finished.

 KS-SCF hessian saved to record  5300.2

 PROGRAM * FREQUENCIES (Calculation of harmonic vibrational spectra for KS-SCF)


 Permanent Dipole Moment [debye]
   1-  3    0.000000   -0.000008   -2.225770

 Dipole Moment Norm    2.2257695 [debye]

 Dipole Moment Derivatives [debye/ang]
                   1             2             3             4             5             6             7             8
         1     0.9524075     0.0000000     0.0000000    -1.5626400     0.0000000     0.0000000     0.3050637     0.0000000
         2     0.0000000     4.1370660    -0.0001605     0.0000000    -2.1033283    -0.0001439     0.0000000    -1.0169648
         3     0.0000000    -0.0002434     5.2204816     0.0000000    -0.0000125    -4.7918941     0.0000000    -0.6858054
                   9            10            11            12
         1     0.0000000     0.3051061     0.0000000     0.0000000
         2    -0.3961012     0.0000000    -1.0168331     0.3964056
         3    -0.2141415     0.0000000     0.6860611    -0.2142601

 Projecting out rotations and translations

   Low Vibration      Wavenumber
        Nr             [1/cm] 
        1                0.00
        2                0.00
        3                0.00
        4                0.00
        5                0.00
        6                0.00

     Vibration        Wavenumber
        Nr             [1/cm] 
        1             1205.65
        2             1263.33
        3             1522.65
        4             1872.67
        5             2843.80
        6             2896.32

 FREQUENCIES * CALCULATION OF NORMAL MODES FOR KS-SCF


 Atomic Coordinates

  Nr  Atom  Charge       X              Y              Z

   1   C     6.00    0.000000000   -0.000004069   -1.123252819
   2   O     8.00    0.000000000    0.000018993    1.126091627
   3   H     1.00    0.000000000   -1.775370593   -2.248482541
   4   H     1.00    0.000000000    1.775117610   -2.249024856

 Gradient norm at reference geometry: 0.21093D-02

 ?WARNING: GRADIENT NORM NOT ZERO!

 Normal Modes

                              1 A``       2 A`        3 A`        4 A`        5 A` 
 Wavenumbers [cm-1]         1205.65     1263.33     1522.65     1872.67     2843.80
 Intensities [km/mol]          1.10       19.82       11.25      121.28       67.43
 Intensities [relative]        0.78       14.16        8.03       86.63       48.17
           CX1             -0.14951    -0.00000     0.00000    -0.00000     0.00000
           CY1             -0.00000     0.12918    -0.00006     0.00002    -0.00039
           CZ1              0.00000    -0.00003    -0.00675     0.21602     0.05745
           OX2              0.03741     0.00000     0.00000     0.00000     0.00000
           OY2              0.00000    -0.06926     0.00003    -0.00001     0.00000
           OZ2              0.00000    -0.00001    -0.06840    -0.15659     0.00075
           HX3              0.59321     0.00000     0.00000     0.00000     0.00000
           HY3              0.00000    -0.21953    -0.34471     0.14769    -0.59381
           HZ3              0.00000     0.55752     0.58276    -0.04347    -0.34643
           HX4              0.59328    -0.00000    -0.00000    -0.00000    -0.00000
           HY4              0.00000    -0.21939     0.34498    -0.14781     0.59843
           HZ4              0.00000    -0.55700     0.58310    -0.04352    -0.34954

                              6 A` 
 Wavenumbers [cm-1]         2896.32
 Intensities [km/mol]        139.99
 Intensities [relative]      100.00
           CX1              0.00000
           CY1             -0.09511
           CZ1             -0.00022
           OX2              0.00000
           OY2              0.00037
           OZ2             -0.00001
           HX3             -0.00000
           HY3              0.56585
           HZ3              0.35485
           HX4             -0.00000
           HY4              0.56077
           HZ4             -0.35207


 Normal Modes of low/zero frequencies

                                  1           2           3           4           5
 Wavenumbers [cm-1]            0.00        0.00        0.00        0.00        0.00
 Intensities [km/mol]          0.00        0.00        0.00        0.00        0.00
 Intensities [relative]        0.00        0.00        0.00        0.00        0.00
           CX1              0.24391     0.01021     0.01272     0.03012     0.00142
           CY1              0.01832    -0.11048     0.07249    -0.02522    -0.02414
           CZ1             -0.00825     0.02172    -0.00551     0.08060     0.15580
           OX2              0.00948     0.11551    -0.05375     0.15000    -0.12035
           OY2             -0.00733     0.12328     0.19780    -0.04422     0.00165
           OZ2             -0.00825     0.02172    -0.00551     0.08060     0.15580
           HX3              0.43813     0.27656    -0.29759    -0.47122     0.16527
           HY3              0.03116    -0.22741     0.00981    -0.01571    -0.03704
           HZ3             -0.02850     0.20622     0.09339     0.06560     0.17615
           HX4              0.28432    -0.36147     0.38952     0.41143    -0.04057
           HY4              0.03116    -0.22747     0.00978    -0.01570    -0.03705
           HZ4              0.01199    -0.16275    -0.10439     0.09560     0.13545

                                  6
 Wavenumbers [cm-1]            0.00
 Intensities [km/mol]          0.00
 Intensities [relative]        0.00
           CX1             -0.01767
           CY1              0.19643
           CZ1              0.04451
           OX2              0.08839
           OY2              0.03727
           OZ2              0.04451
           HX3              0.18432
           HY3              0.27605
           HZ3             -0.08111
           HX4             -0.32575
           HY4              0.27609
           HZ4              0.17012


 Frequencies dumped to record   5400.2

 Zero point energy:  0.02643680 [H]     5802.21 [1/CM]       69.41 [KJ/MOL]

 Recomputing wavefunction at initial geometry


 **********************************************************************************************************************************
 DATASETS  * FILE   NREC   LENGTH (MB)   RECORD NAMES
              1      21       38.52       500      610      700      701      900      950      970     1000      129      960   
                                          VAR    BASINP    GEOM     GEOM    SYMINP    ZMAT    AOBASIS   BASIS     P2S    ABASIS    
                                         1100     1400     1410     1200     1210     1080     1600     1650     1300     1700   
                                           S        T        V       H0       H01     AOSYM     SMH    MOLCAS    ERIS     OPER   
                                         1800   
                                         GRID   

              2       9        3.18       700     1000      520     1800     2100      701     5300     5450     5400   
                                         GEOM     BASIS   MCVARS    GRID      RKS     GEOM     HESS     NMOD     FREQ   

 PROGRAMS   *        TOTAL      FREQ      OPTG    KS-SCF       INT
 CPU TIMES  *       126.53     67.48     53.71      2.73      1.86
 REAL TIME  *       130.41 SEC
 DISK USED  *        92.16 MB
 **********************************************************************************************************************************

 Density functional group M06=XC-M06
 Functional: XC-M06(via MFM 1.6)                                               Gradient terms: 1
 Use libxcgrid:  F
 Use grid at  1800.2
 

 Exact exchange will be calculated, factor:  0.2700

 Functional: XC-M06                    Factor:  1.0000
 
   62265 words reserved for DFT integration

 PROGRAM * RKS-SCF (Restricted closed shell Kohn-Sham)     Authors: W. Meyer, H.-J. Werner, P.J. Knowles, 1993

 NUMBER OF ELECTRONS:       8+    8-
 CONVERGENCE THRESHOLDS:    1.00E-07 (Density)    1.00E-06 (Energy)
 MAX. NUMBER OF ITERATIONS:       60
 INTERPOLATION TYPE:            DIIS
 INTERPOLATION STEPS:              2 (START)      1 (STEP)
 LEVEL SHIFTS:                  0.00 (CLOSED)  0.00 (OPEN) 



 Use fine grid record 1800.2 for energy threshold  1.0D-06
 Orbital guess generated from atomic densities. Full valence occupancy:   10   2

 Molecular orbital dump at record        2101.2

 Initial occupancy:   7   1

 ITERATION    DDIFF          GRAD             ENERGY        2-EL.EN.            DIPOLE MOMENTS         DIIS   ORB.
    1      0.000D+00      0.000D+00      -114.42770195    169.976204    0.00000    0.00002   -1.58865    0    start
    2      0.000D+00      0.146D-01      -114.26583006    159.658125    0.00000   -0.00004    0.66453    1    diag
    3      0.271D-01      0.294D-01      -114.48316677    165.427961    0.00000    0.00000   -0.93409    2    diag
    4      0.197D-01      0.243D-02      -114.48480865    165.919102    0.00000   -0.00001   -0.86310    3    diag
    5      0.163D-02      0.774D-03      -114.48497536    165.795333    0.00000   -0.00000   -0.87159    4    diag
    6      0.362D-03      0.873D-04      -114.48497739    165.811550    0.00000   -0.00000   -0.87568    5    diag
    7      0.594D-04      0.895D-05      -114.48497741    165.812265    0.00000   -0.00000   -0.87572    6    diag
    8      0.548D-05      0.195D-05      -114.48497741    165.812451    0.00000   -0.00000   -0.87572    7    diag
    9      0.139D-05      0.552D-06      -114.48497741    165.812542    0.00000   -0.00000   -0.87575    8    diag
   10      0.347D-06      0.278D-07      -114.48497741    165.812535    0.00000   -0.00000   -0.87575    9    orth
   11      0.258D-07      0.565D-08      -114.48497741    165.812536    0.00000   -0.00000   -0.87575    0    orth

 Final occupancy:   7   1

 !RKS STATE  1.1 Energy              -114.484977410914
 Nuclear energy                        31.52602176
 One-electron energy                 -218.05422865
 Two-electron energy                   82.90626802
 SCF exchange energy                  -14.07837848     Factor= 0.2700
 Density functional                   -10.86303854     XC-M06=-10.86303854
 Virial quotient                       -1.00367405
 !RKS STATE  1.1 Dipole moment          0.00000000    -0.00000299    -0.87574737
 Dipole moment /Debye                   0.00000000    -0.00000761    -2.22578199

 Orbital energies:

         1.1          2.1          3.1          4.1          5.1          6.1          7.1          8.1          9.1
    -19.229670   -10.339034    -1.093260    -0.647240    -0.514118    -0.473329    -0.288387     0.053704     0.109408

         1.2          2.2          3.2
     -0.428095    -0.043803     0.211175


 HOMO      7.1    -0.288387 =      -7.8474eV
 LUMO      2.2    -0.043803 =      -1.1919eV
 LUMO-HOMO         0.244585 =       6.6555eV


 **********************************************************************************************************************************
 DATASETS  * FILE   NREC   LENGTH (MB)   RECORD NAMES
              1      21       38.52       500      610      700      701      900      950      970     1000      129      960   
                                          VAR    BASINP    GEOM     GEOM    SYMINP    ZMAT    AOBASIS   BASIS     P2S    ABASIS    
                                         1100     1400     1410     1200     1210     1080     1600     1650     1300     1700   
                                           S        T        V       H0       H01     AOSYM     SMH    MOLCAS    ERIS     OPER   
                                         1800   
                                         GRID   

              2      10        5.73       700     1000      520     1800     2100      701     5300     5450     5400     2101   
                                         GEOM     BASIS   MCVARS    GRID      RKS     GEOM     HESS     NMOD     FREQ      RKS  

 PROGRAMS   *        TOTAL    KS-SCF      FREQ      OPTG    KS-SCF       INT
 CPU TIMES  *       131.18      4.60     67.48     53.71      2.73      1.86
 REAL TIME  *       135.21 SEC
 DISK USED  *        92.16 MB
 **********************************************************************************************************************************


 PROGRAM * SURF (Surface generation)   Authors: G. Rauhut 2004, T. Hrenar 2005, M. Neff 2012, D. Oschetzki 2013

 Freezing grid

 Reference geometry in SURF calculation

   1  C     6.00    -0.000004069   -1.123252819    0.000000000
   2  O     8.00     0.000018993    1.126091627    0.000000000
   3  H     1.00    -1.775370593   -2.248482541    0.000000000
   4  H     1.00     1.775117610   -2.249024856    0.000000000


 The phase of the following normal coordinates was changed:
  2  4  5

 Information about detected symmetry elements:
 Reflexion plane with normal vector (   0.0   0.0   1.0)^T

 Detected point group: Cs 

 Starting mppx-calculation of energy surfaces:

 Calculating 1D potential

 1D:   6  Points:   3 Conv: 0.00063271 0.00063247  s
 1D:   5  Points:   6 Conv: 0.00061894 0.00061895
 1D:   4  Points:   6 Conv: 0.00035259 0.00035259
 1D:   3  Points:   6 Conv: 0.00027401 0.00027400
 1D:   2  Points:   3 Conv: 0.00019776 0.00019816  s
 1D:   1  Points:   3 Conv: 0.00022352 0.00022358  s

 The determined shift and scalnm parameters are:

 scalnm,mode= 1,sfac=1.000,shift= 0
 scalnm,mode= 2,sfac=1.000,shift= 0
 scalnm,mode= 3,sfac=1.000,shift= 0
 scalnm,mode= 4,sfac=1.000,shift= 0
 scalnm,mode= 5,sfac=1.000,shift= 0
 scalnm,mode= 6,sfac=1.000,shift= 0

 Calculating 2D coupling potential

 2D:   6   5  Points:  16 Conv: 0.00005352 0.00005387
 2D:   6   4  Points:  16 Conv: 0.00000398 0.00000370
 2D:   6   3  Points:  16 Conv: 0.00000476 0.00000463
 2D:   6   2  Points:  16 Conv: 0.00001447 0.00001369
 2D:   6   1  Points:   8 Conv: 0.00000184 0.00000110
 2D:   5   4  Points:  16 Conv: 0.00000456 0.00000462
 2D:   5   3  Points:  16 Conv: 0.00001377 0.00001289
 2D:   5   2  Points:  16 Conv: 0.00000734 0.00000721
 2D:   5   1  Points:   8 Conv: 0.00000681 0.00000700
 2D:   4   3  Points:  16 Conv: 0.00000591 0.00000577
 2D:   4   2  Points:  16 Conv: 0.00000431 0.00000369
 2D:   4   1  Points:   8 Conv: 0.00000246 0.00000243
 2D:   3   2  Points:  16 Conv: 0.00000506 0.00000412
 2D:   3   1  Points:   8 Conv: 0.00000719 0.00000695
 2D:   2   1  Points:   8 Conv: 0.00000330 0.00000090

 Calculating 3D coupling potential

 3D:   6   5   4  Points:    8 Conv: 0.00000036
 3D:   6   5   3  Points:    8 Conv: 0.00000050
 3D:   6   5   2  Points:    8 Conv: 0.00000027
 3D:   6   5   1  Points:    4 Conv: 0.00000025
 3D:   6   4   3  Points:    8 Conv: 0.00000053
 3D:   6   4   2  Points:    8 Conv: 0.00000555
 3D:   6   4   1  Points:    4 Conv: 0.00000014
 3D:   6   3   2  Points:    8 Conv: 0.00000846
 3D:   6   3   1  Points:    4 Conv: 0.00000014
 3D:   6   2   1  Points:    4 Conv: 0.00000062
 3D:   5   4   3  Points:    8 Conv: 0.00000293
 3D:   5   4   2  Points:    8 Conv: 0.00000050
 3D:   5   4   1  Points:    4 Conv: 0.00000035
 3D:   5   3   2  Points:    8 Conv: 0.00000076
 3D:   5   3   1  Points:    4 Conv: 0.00000071
 3D:   5   2   1  Points:    4 Conv: 0.00000011
 3D:   4   3   2  Points:    8 Conv: 0.00000064
 3D:   4   3   1  Points:    4 Conv: 0.00000048
 3D:   4   2   1  Points:    4 Conv: 0.00000013
 3D:   3   2   1  Points:    4 Conv: 0.00000022

 Grid calculation completed

 Formal number of grid points:     85856
 Actual number of grid points:       437 Time (sec):        680.6
 Number of 1D grid points:           117 Time (sec):        215.0
 Number of 2D grid points:           200 Time (sec):        298.1
 Number of 3D grid points:           120 Time (sec):        167.6

 CPU-Time for SURF calculation:        687.1 sec.


 **********************************************************************************************************************************
 DATASETS  * FILE   NREC   LENGTH (MB)   RECORD NAMES
              1      22       46.89       500      610      700      703      900      950      970     1002      129      960   
                                          VAR    BASINP    GEOM     GEOM    SYMINP    ZMAT    AOBASIS   BASIS     P2S    ABASIS    
                                         1100     1400     1410     1200     1210     1080     1600     1650     1300     1700   
                                           S        T        V       H0       H01     AOSYM     SMH    MOLCAS    ERIS     OPER   
                                         1800      702   
                                         GRID     GEOM   

              2      20       22.73       700     1000      520     1800     2100      701     5300     5450     5400     2101   
                                         GEOM     BASIS   MCVARS    GRID      RKS     GEOM     HESS     NMOD     FREQ      RKS  
                                         5600     5650      702     1001     2102      703     1002     2103     5650(1)  5550   
                                         SURF    DIPOLE    GEOM     BASIS     RKS     GEOM     BASIS     RKS    DIPOLE   VIBINFO    

 PROGRAMS   *        TOTAL      SURF       INT    KS-SCF       INT    KS-SCF       INT    KS-SCF       INT    KS-SCF       INT
 CPU TIMES  *       818.36      3.47      1.79      1.97      1.83      1.95      1.85      4.61      1.79      4.61      1.79
 REAL TIME  *       854.84 SEC
 DISK USED  *       119.08 MB
 **********************************************************************************************************************************


 PROGRAM * POLY (Transformation of PES grid representation to an analytic representation)   Authors: G. Rauhut 2008, M. Neff 2010, B. Ziegler 2019
 
 Reading potential information from:      5600.2
 Reading dipole information from:         5650.2
 
 Watson correction term has NOT been added to the potential.

 Time to compute the number of basis functions:    0.1 sec
 Number of basis functions:  5

        dim  chi_av       chi_max      time in sec      Surface

 Energy 1D   0.3478E-13   0.1471E-12     0.0            5
        2D   0.6767E-11   0.1458E-10     0.0            1  5
        3D   0.6351E-12   0.2821E-11     0.1            5  4  3

 Dipole 1D   0.5611E-06   0.8100E-05     0.0            1
        2D   0.8666E-04   0.1252E-02     0.0            5  1
        3D   0.3598E-05   0.2525E-04     0.3            5  2  1
 
 Harmonic frequencies obtained from polynomial fit

   Mode        Ref.         Fit

   6 A`      2896.32     2906.94
   5 A`      2843.80     2857.90
   4 A`      1872.67     1876.20
   3 A`      1522.65     1498.34
   2 A`      1263.33     1230.52
   1 A``     1205.65     1296.55
 

 CPU-Time for POLY calculation:          0.6 sec.


 **********************************************************************************************************************************
 DATASETS  * FILE   NREC   LENGTH (MB)   RECORD NAMES
              1      22       46.89       500      610      700      703      900      950      970     1002      129      960   
                                          VAR    BASINP    GEOM     GEOM    SYMINP    ZMAT    AOBASIS   BASIS     P2S    ABASIS    
                                         1100     1400     1410     1200     1210     1080     1600     1650     1300     1700   
                                           S        T        V       H0       H01     AOSYM     SMH    MOLCAS    ERIS     OPER   
                                         1800      702   
                                         GRID     GEOM   

              2      22       22.90       700     1000      520     1800     2100      701     5300     5450     5400     2101   
                                         GEOM     BASIS   MCVARS    GRID      RKS     GEOM     HESS     NMOD     FREQ      RKS  
                                         5600     5650      702     1001     2102      703     1002     2103     5650(1)  5550   
                                         SURF    DIPOLE    GEOM     BASIS     RKS     GEOM     BASIS     RKS    DIPOLE   VIBINFO    
                                         5750     5770   
                                         POLY      MU  

 PROGRAMS   *        TOTAL      POLY    KS-SCF       INT    KS-SCF       INT    KS-SCF       INT    KS-SCF       INT    KS-SCF
 CPU TIMES  *       819.00      0.60      1.90      1.79      1.97      1.83      1.95      1.85      4.61      1.79      4.61
 REAL TIME  *       855.49 SEC
 DISK USED  *       119.08 MB
 **********************************************************************************************************************************


 PROGRAM * VPT2 (2nd Order Vibrational Perturbation Theory)   Authors: R. Ramakrishnan, G. Rauhut 2015, B. Schroeder 2017

 Reading potential from record        5600.2

 Asymmetric top molecule


 Non-zero Coriolis zeta constants

   Modes        a             b             c

   6  5      0.000000      0.000000      0.035962
   6  4      0.000000     -0.000000      0.402113
   6  3      0.000000      0.000000      0.914872
   6  2      0.000000     -0.000000     -0.004182
   6  1     -0.844445      0.002033      0.000000
   5  4      0.000000      0.000000     -0.001770
   5  3     -0.000000     -0.000000     -0.004164
   5  2     -0.000000     -0.000000     -0.911737
   5  1      0.003509      0.518724     -0.000000
   4  3      0.000000      0.000000     -0.000132
   4  2     -0.000000     -0.000000     -0.361631
   4  1     -0.000128      0.533269     -0.000000
   3  2     -0.000000     -0.000000      0.194787
   3  1     -0.000308      0.668240      0.000000
   2  1     -0.535631     -0.000319      0.000000
 

 VPT2 Vibration-rotation interaction constants (in cm-1)

                       Harmonic                                Coriolis                                Anharmonic
           _________________________________       _________________________________       _________________________________

 Mode           A           B           C               A           B           C               A           B           C

   6       -0.006527   -0.000909   -0.000000       -0.169747   -0.000000   -0.004524        0.263649    0.002867    0.006148
   5       -0.135727   -0.000054   -0.000474       -0.000003   -0.001278   -0.002993        0.306181    0.001889    0.006030
   4       -0.012662   -0.003748   -0.003042       -0.000000   -0.003085   -0.000291        0.034740    0.013759    0.011120
   3       -0.084827   -0.002153   -0.000661       -0.000000   -0.009932    0.002938        0.116821   -0.003011   -0.000574
   2       -0.037179   -0.005177   -0.000000       -1.787795   -0.000000    0.005501        0.015881   -0.000881   -0.000441
   1       -0.000000   -0.000000   -0.000000        1.983151    0.014570    0.000000        0.046343   -0.003912   -0.002322


                          Total
           _________________________________

 Mode           A           B           C

   6        0.087375    0.001959    0.001625
   5        0.170450    0.000558    0.002564
   4        0.022078    0.006927    0.007787
   3        0.031993   -0.015096    0.001702
   2       -1.809094   -0.006058    0.005060
   1        2.029494    0.010657   -0.002322


 VPT2 Quartic centrifugal distortion constants (in cm-1)

                  Tau               Tau'

    AAAA    -0.278492E-02     -0.278492E-02
    BBBB    -0.120861E-04     -0.120861E-04
    CCCC    -0.687398E-05     -0.687398E-05
    BBAA     0.400612E-04     -0.182933E-03
    CCAA    -0.107437E-04     -0.107437E-04
    CCBB    -0.871342E-05     -0.871342E-05


 VPT2 Quartic centrifugal distortion constants in the Nielsen formalism (cm-1)


    DJ       0.232209E-05
    DK       0.650132E-03
    DJK      0.437750E-04
    R5      -0.105990E-04
    R6      -0.239561E-07
    dJ       0.325754E-06


 VPT2 State-dependent vibrationally averaged rotational constants (in cm-1) 

   Ref.         9.47683     1.31970     1.15839

   |000000>     9.21068     1.32023     1.15018
   |000001>     9.12330     1.31827     1.14856
   |000002>     9.03593     1.31631     1.14693
   |000010>     9.04023     1.31967     1.14762
   |000011>     8.95285     1.31771     1.14599
   |000020>     8.86978     1.31911     1.14505
   |000100>     9.18860     1.31330     1.14239
   |000101>     9.10123     1.31134     1.14077
   |000110>     9.01815     1.31274     1.13983
   |000200>     9.16652     1.30637     1.13461
   |001000>     9.17869     1.33532     1.14848
   |001001>     9.09131     1.33336     1.14685
   |001010>     9.00824     1.33477     1.14592
   |001100>     9.15661     1.32840     1.14069
   |002000>     9.14669     1.35042     1.14678
   |010000>    11.01977     1.32629     1.14512
   |010001>    10.93240     1.32433     1.14350
   |010010>    10.84932     1.32573     1.14256
   |010100>    10.99769     1.31936     1.13733
   |011000>    10.98778     1.34138     1.14342
   |020000>    12.82887     1.33234     1.14006
   |100000>     7.18118     1.30957     1.15250
   |100001>     7.09381     1.30761     1.15088
   |100010>     7.01073     1.30901     1.14994
   |100100>     7.15911     1.30264     1.14472
   |101000>     7.14919     1.32467     1.15080
   |110000>     8.99028     1.31563     1.14744
   |200000>     5.15169     1.29891     1.15483


 VPT2 zero-point vibrational energy (in cm^-1)

 Harmonic:        5833.23092
 Anharmonic:      -116.37995
 Kinetic:           -1.47118
 Total:           5715.37978

 Results of VPT2 calculation (Frequencies in cm-1)


 Fundamentals

       Mode           Harmonic    Anharmonic     Intensity
       6^1 A`          2906.94       2840.10      10420.40
       5^1 A`          2857.90       2681.66         83.08
       4^1 A`          1876.20       1840.31        140.74
       3^1 A`          1498.34       1506.53          2.63
       2^1 A`          1230.52       1227.04       1233.02
       1^1 A``         1296.55       1033.20          0.99


 Overtones

       Mode           Harmonic    Anharmonic     Intensity
       4^2 A`          3752.41       3658.78          3.51
       3^2 A`          2996.69       3046.97          4.70
       2^2 A`          2461.04       2483.16        118.94
       1^2 A`          2593.10       1909.77          0.14


 Combination bands

       Mode           Harmonic    Anharmonic     Intensity
  4^1  6^1 A`          4783.15       4653.33          4.89
  4^1  5^1 A`          4734.11       4502.08          1.83
  3^1  6^1 A`          4405.28       4362.33          1.27
  3^1  5^1 A`          4356.25       4140.44          0.14
  2^1  6^1 A`          4137.46       4058.22          0.06
  2^1  5^1 A`          4088.42       3846.25          0.06
  1^1  6^1 A``         4203.49       3837.43          0.00
  1^1  5^1 A``         4154.45       3646.38          0.01
  3^1  4^1 A`          3374.55       3340.30          0.16
  2^1  4^1 A`          3106.73       3064.33          0.95
  1^1  4^1 A``         3172.75       2850.62          0.65
  2^1  3^1 A`          2728.86       2700.53          2.60
  1^1  3^1 A``         2794.89       2461.59          0.09
  1^1  2^1 A``         2527.07       2177.44          0.00

 CPU-Time for VPT2 calculation:          0.0 sec.


 **********************************************************************************************************************************
 DATASETS  * FILE   NREC   LENGTH (MB)   RECORD NAMES
              1      22       46.89       500      610      700      703      900      950      970     1002      129      960   
                                          VAR    BASINP    GEOM     GEOM    SYMINP    ZMAT    AOBASIS   BASIS     P2S    ABASIS    
                                         1100     1400     1410     1200     1210     1080     1600     1650     1300     1700   
                                           S        T        V       H0       H01     AOSYM     SMH    MOLCAS    ERIS     OPER   
                                         1800      702   
                                         GRID     GEOM   

              2      22       22.90       700     1000      520     1800     2100      701     5300     5450     5400     2101   
                                         GEOM     BASIS   MCVARS    GRID      RKS     GEOM     HESS     NMOD     FREQ      RKS  
                                         5600     5650      702     1001     2102      703     1002     2103     5650(1)  5550   
                                         SURF    DIPOLE    GEOM     BASIS     RKS     GEOM     BASIS     RKS    DIPOLE   VIBINFO    
                                         5750     5770   
                                         POLY      MU  

 PROGRAMS   *        TOTAL      VPT2      POLY    KS-SCF       INT    KS-SCF       INT    KS-SCF       INT    KS-SCF       INT
 CPU TIMES  *       819.05      0.00      0.60      1.90      1.79      1.97      1.83      1.95      1.85      4.61      1.79
 REAL TIME  *       855.54 SEC
 DISK USED  *       119.08 MB
 **********************************************************************************************************************************

 VPT2/DEF2-TZVP energy=      0.000000000000

            VPT2            POLY          KS-SCF          KS-SCF          KS-SCF          KS-SCF          KS-SCF          KS-SCF
   -114.48292319   -114.48292319   -114.48292319   -114.48291387   -114.48247369   -114.48247426   -114.48253056   -114.48226738
 **********************************************************************************************************************************
 Molpro calculation terminated
