
 Primary working directories    : /jobfs/7633244.gadi-pbs/molpro.HKGjEk7B30
 Secondary working directories  : /jobfs/7633244.gadi-pbs/molpro.HKGjEk7B30
 Wavefunction directory         : /home/561/pk8622/wfu/
 Main file repository           : /jobfs/7633244.gadi-pbs/molpro.HKGjEk7B30/

 id        : anu

 Nodes                            nprocs
 gadi-cpu-clx-1999.gadi.nci.org.au    4

 Using customized tuning parameters: mindgm=1; mindgv=20; mindgc=4; mindgr=1; noblas=0; minvec=7
 default implementation of scratch files=df  


 Variables initialized (934), CPU time= 0.07 sec
 ***,Geom opt + VPT2 for phosphine
 
 memory,40,m
 basis=def2-TZVP
 
 orient,mass
 geomtyp=xyz
 geometry={
 4
 P         -0.06619        1.22605       -0.15895
 H          1.31493        1.03098        0.07917
 H         -0.38145        1.45450        1.20144
 H         -0.38145       -0.15269       -0.11518
 }
 mass,iso
 
 ks,M06
 optg
 
 frequencies,symm=auto
 
 label1
 {ks,M06
 start,atden}
 
 surf,start1D=label1,type=qff,sym=auto
 poly,type=qff
 vpt2,combi=1
 Commands  initialized (763), CPU time= 0.01 sec, 617 directives.
 Default parameters read. Elapsed time= 0.09 sec

 Checking input...
 Passed
1


                                         ***  PROGRAM SYSTEM MOLPRO  ***
                                       Copyright, TTI GmbH Stuttgart, 2015
                                    Version 2019.2 linked Nov 21 2019 12:21:21


 **********************************************************************************************************************************
 LABEL *   Geom opt + VPT2 for phosphine                                                 
  64 bit mppx version                                                                    DATE: 23-Jun-20          TIME: 14:59:50  
 **********************************************************************************************************************************

 SHA1:             8dbd9ae1082e4ce945b0f27595c9eb2d4aa09004
 **********************************************************************************************************************************

 Variable memory set to   40000000 words,  buffer space 

 SETTING BASIS          =    DEF2-TZVP
 SETTING GEOMTYP        =    XYZ
 ZCENTRE=MASS
 


 Using masses of most abundant isotopes

 **********************************************************************************************************************************


 Recomputing integrals since basis changed


 Using spherical harmonics

 Library entry P      S def2-TZVP            selected for orbital group  1
 Library entry P      P def2-TZVP            selected for orbital group  1
 Library entry P      D def2-TZVP            selected for orbital group  1
 Library entry P      F def2-TZVP            selected for orbital group  1
 Library entry H      S def2-TZVP            selected for orbital group  2
 Library entry H      P def2-TZVP            selected for orbital group  2


 PROGRAM * SEWARD (Integral evaluation for generally contracted gaussian basis sets)     Author: Roland Lindh, 1990

 Geometry written to block  1 of record 700

 Orientation using atomic masses  
 Molecule type: Asymmetric top
 Rotational constants:     135.5969200    116.1702225    135.5972819 GHz

 Point group  C1  



 ATOMIC COORDINATES

 NR  ATOM    CHARGE       X              Y              Z

   1  P      15.00   -0.000001385   -0.126143485   -0.000000924
   2  H       1.00    0.908261485    1.292249388    2.076864527
   3  H       1.00    1.344495678    1.292266355   -1.824985097
   4  H       1.00   -2.252714587    1.292286322   -0.251851042

 Bond lengths in Bohr (Angstrom)

 1-2  2.673976418  1-3  2.673971963  1-4  2.673964916
     ( 1.415007383)     ( 1.415005026)     ( 1.415001296)

 Bond angles

  2-1-3   94.46972981   2-1-4   94.46971295   3-1-4   94.46976197

 NUCLEAR CHARGE:                   18
 NUMBER OF PRIMITIVE AOS:          93
 NUMBER OF SYMMETRY AOS:           87
 NUMBER OF CONTRACTIONS:           55   (   55A   )
 NUMBER OF CORE ORBITALS:           5   (    5A   )
 NUMBER OF VALENCE ORBITALS:        7   (    7A   )


 NUCLEAR REPULSION ENERGY   17.59300918


 Eigenvalues of metric

         1 0.136E-01 0.169E-01 0.169E-01 0.286E-01 0.410E-01 0.410E-01 0.560E-01 0.691E-01


 Contracted 2-electron integrals neglected if value below      1.0D-11
 AO integral compression algorithm  1   Integral accuracy      1.0D-11

     5.767 MB (compressed) written to integral file ( 49.9%)


 NUMBER OF SORTED TWO-ELECTRON INTEGRALS:    1186570.     BUFFER LENGTH:  32768
 NUMBER OF SEGMENTS:   1  SEGMENT LENGTH:    1186570      RECORD LENGTH: 524288

 Memory used in sort:       1.74 MW

 SORT1 READ     1451947. AND WROTE      965867. INTEGRALS IN      3 RECORDS. CPU TIME:     0.03 SEC, REAL TIME:     0.03 SEC
 SORT2 READ      965867. AND WROTE     1186570. INTEGRALS IN     22 RECORDS. CPU TIME:     0.05 SEC, REAL TIME:     0.07 SEC

 FILE SIZES:   FILE 1:    35.9 MBYTE,  FILE 4:    12.6 MBYTE,   TOTAL:     48.5 MBYTE

 OPERATOR DM      FOR CENTER  0  COORDINATES:    0.000000    0.000000    0.000000


 **********************************************************************************************************************************
 DATASETS  * FILE   NREC   LENGTH (MB)   RECORD NAMES
              1      19       34.59       500      610      700      900      950      970     1000      129      960     1100   
                                          VAR    BASINP    GEOM    SYMINP    ZMAT    AOBASIS   BASIS     P2S    ABASIS      S 
                                         1400     1410     1200     1210     1080     1600     1650     1300     1700   
                                           T        V       H0       H01     AOSYM     SMH    MOLCAS    ERIS     OPER   

 PROGRAMS   *        TOTAL       INT
 CPU TIMES  *         1.37      0.72
 REAL TIME  *         1.65 SEC
 DISK USED  *        48.83 MB
 **********************************************************************************************************************************

 Density functional group M06=XC-M06
 Functional: XC-M06(via MFM 1.6)                                               Gradient terms: 1
 Use libxcgrid:  F
 Use grid at  1800.2
 

 Exact exchange will be calculated, factor:  0.2700

 Functional: XC-M06                    Factor:  1.0000
 
 Generated new metagrid on record  1800.2 with target accuracy 1.0D-06 and 16020 points in CPU time    0.2
 Computed new grid on record 1800.1 in CPU time    0.3
   47647 words reserved for DFT integration

 PROGRAM * RKS-SCF (Restricted closed shell Kohn-Sham)     Authors: W. Meyer, H.-J. Werner, P.J. Knowles, 1993

 NUMBER OF ELECTRONS:       9+    9-    SPACE SYMMETRY=1    SPIN SYMMETRY: Singlet 
 CONVERGENCE THRESHOLDS:    1.00E-06 (Density)    1.00E-06 (Energy)
 MAX. NUMBER OF ITERATIONS:       60
 INTERPOLATION TYPE:            DIIS
 INTERPOLATION STEPS:              2 (START)      1 (STEP)
 LEVEL SHIFTS:                  0.00 (CLOSED)  0.00 (OPEN) 



 Use fine grid record 1800.2 for energy threshold  1.0D-06
 Orbital guess generated from atomic densities. Full valence occupancy:    9

 Molecular orbital dump at record        2100.2

 Initial occupancy:   9

 ITERATION    DDIFF          GRAD             ENERGY        2-EL.EN.            DIPOLE MOMENTS         DIIS   ORB.
    1      0.000D+00      0.000D+00      -343.12533704    333.962065   -0.00003    0.36829   -0.00003    0    start
    2      0.000D+00      0.336D-02      -343.12905601    330.177422    0.00419    0.07282   -0.00449    1    diag
    3      0.791D-02      0.319D-02      -343.13320999    331.822930    0.00227    0.23384   -0.00225    2    diag
    4      0.320D-02      0.232D-03      -343.13322881    331.868125    0.00304    0.21805   -0.00304    3    diag
    5      0.368D-03      0.606D-04      -343.13323065    331.873036    0.00250    0.22641   -0.00252    4    diag
    6      0.578D-04      0.208D-04      -343.13323090    331.871467    0.00272    0.22395   -0.00276    5    diag
    7      0.177D-04      0.187D-05      -343.13323090    331.872196    0.00265    0.22407   -0.00268    6    diag
    8      0.238D-05      0.373D-06      -343.13323090    331.872201    0.00269    0.22407   -0.00273    7    diag
    9      0.356D-06      0.132D-06      -343.13323090    331.872197    0.00267    0.22407   -0.00270    0    orth

 Final occupancy:   9

 !RKS STATE  1.1 Energy              -343.133230900847
 Nuclear energy                        17.59300918
 One-electron energy                 -508.73282504
 Two-electron energy                  165.93609841
 SCF exchange energy                  -23.65624929     Factor= 0.2700
 Density functional                   -17.92951346     XC-M06=-17.92951346
 Virial quotient                       -1.00222982
 !RKS STATE  1.1 Dipole moment          0.00266769     0.22406574    -0.00270229
 Dipole moment /Debye                   0.00678015     0.56948099    -0.00686809

 Orbital energies:

         1.1          2.1          3.1          4.1          5.1          6.1          7.1          8.1          9.1         10.1
    -77.225568    -6.649755    -4.768587    -4.768521    -4.764267    -0.657637    -0.395818    -0.395098    -0.283384     0.029595

        11.1
      0.029961


 HOMO      9.1    -0.283384 =      -7.7113eV
 LUMO     10.1     0.029595 =       0.8053eV
 LUMO-HOMO         0.312978 =       8.5166eV


 **********************************************************************************************************************************
 DATASETS  * FILE   NREC   LENGTH (MB)   RECORD NAMES
              1      20       35.11       500      610      700      900      950      970     1000      129      960     1100   
                                          VAR    BASINP    GEOM    SYMINP    ZMAT    AOBASIS   BASIS     P2S    ABASIS      S 
                                         1400     1410     1200     1210     1080     1600     1650     1300     1700     1800   
                                           T        V       H0       H01     AOSYM     SMH    MOLCAS    ERIS     OPER     GRID   

              2       5        2.87       700     1000      520     1800     2100   
                                         GEOM     BASIS   MCVARS    GRID      RKS  

 PROGRAMS   *        TOTAL    KS-SCF       INT
 CPU TIMES  *         2.80      1.43      0.72
 REAL TIME  *         3.10 SEC
 DISK USED  *        48.83 MB
 **********************************************************************************************************************************


 PROGRAM * OPT (Geometry optimization)     Authors: F. Eckert and H.-J. Werner


 BFGS update of hessian

 *** Long output written to logfile /scratch/on41/pk8622/Test_Calcs/Molpro/VPT2/phosphine_vpt2.log ***


 Geometry optimization using default procedure for command KS-SCF

 Geometry written to block  1 of record 700

 Making model hessian for cartesian coordinates

 Entering Rational Function Geometry Optimization

 ITER.   ENERGY(OLD)    ENERGY(NEW)      DE          GRADMAX     GRADNORM    GRADRMS     STEPMAX     STEPLEN     STEPRMS   CPU-time
   1  -343.13323090  -343.13314524     0.00008566  0.00560724  0.00666691  0.00111115  0.11525261  0.11832153  0.05916077      4.89
   2  -343.13314524  -343.12841472     0.00473052  0.00582385  0.00648612  0.00108102  0.26001707  0.30000000  0.15000000      9.55
   3  -343.12841472  -343.12558192     0.00283280  0.05133937  0.05644947  0.00940824  0.22767039  0.30000000  0.15000000     14.29
   4  -343.12558192  -343.12834239    -0.00276046  0.03249545  0.03701204  0.00616867  0.27359864  0.30000000  0.15000000     19.04
   5  -343.12834239  -343.12007710     0.00826529  0.04255103  0.05812910  0.00968818  0.22712237  0.30000000  0.15000000     23.79
   6  -343.12007710  -343.12794141    -0.00786431  0.12968474  0.13406833  0.02234472  0.29108018  0.30000000  0.15000000     28.59
   7  -343.12794141  -343.13054126    -0.00259985  0.04706697  0.06106300  0.01017717  0.20453155  0.30000000  0.15000000     33.37
   8  -343.13054126  -343.12079761     0.00974365  0.03224414  0.03923298  0.00653883  0.27621869  0.30000000  0.15000000     38.16
   9  -343.12079761  -343.13096215    -0.01016454  0.06746230  0.08057044  0.01342841  0.20077865  0.30000000  0.15000000     42.95
  10  -343.13096215  -343.12133493     0.00962722  0.03026266  0.03637447  0.00606241  0.23107933  0.30000000  0.15000000     47.71
  11  -343.12133493  -343.10961973     0.01171520  0.11844650  0.12096046  0.02016008  0.16675986  0.30000000  0.15000000     52.55
  12  -343.10961973  -343.12500272    -0.01538300  0.12569250  0.15893102  0.02648850  0.22325421  0.30000000  0.15000000     57.35
  13  -343.12500272  -343.13227873    -0.00727601  0.04692261  0.07317214  0.01219536  0.20219470  0.30000000  0.15000000     62.10
  14  -343.13227873  -343.12808837     0.00419036  0.02459575  0.02783205  0.00463868  0.18318659  0.30000000  0.15000000     66.90
  15  -343.12808837  -343.12970820    -0.00161983  0.03005769  0.04793061  0.00798844  0.26931625  0.30000000  0.15000000     71.69
  16  -343.12970820  -343.13149627    -0.00178807  0.04904511  0.05537969  0.00922995  0.20175712  0.30000000  0.15000000     76.48
  17  -343.13149627  -343.12723194     0.00426433  0.03308739  0.03993801  0.00665634  0.18834860  0.30000000  0.15000000     81.35
  18  -343.12723194  -343.12642971     0.00080223  0.03711674  0.05480982  0.00913497  0.21664752  0.30000000  0.15000000     86.12
  19  -343.12642971  -343.12834606    -0.00191635  0.07800437  0.08805726  0.01467621  0.27917999  0.30000000  0.15000000     91.10
  20  -343.12834606  -343.12701709     0.00132897  0.04801356  0.05762158  0.00960360  0.18062736  0.30000000  0.15000000     95.91
  21  -343.12701709  -343.11906039     0.00795669  0.06320893  0.07789109  0.01298185  0.27620620  0.30000000  0.15000000    100.68
  22  -343.11906039  -343.12936067    -0.01030028  0.07699025  0.09432671  0.01572112  0.24958699  0.30000000  0.15000000    105.57
  23  -343.12936067  -343.11630777     0.01305291  0.04465433  0.04914878  0.00819146  0.20012258  0.30000000  0.15000000    110.37
  24  -343.11630777  -343.12222736    -0.00591960  0.08430443  0.10255309  0.01709218  0.25032244  0.30000000  0.15000000    115.12
  25  -343.12222736  -343.13122990    -0.00900253  0.06611990  0.07599422  0.01266570  0.22981594  0.30000000  0.15000000    119.79
  26  -343.13122990  -343.12405539     0.00717450  0.02769146  0.03152864  0.00525477  0.16446665  0.30000000  0.15000000    124.63
  27  -343.12405539  -343.12601934    -0.00196395  0.07149172  0.09169233  0.01528205  0.22491383  0.30000000  0.15000000    129.41
  28  -343.12601934  -343.12597212     0.00004722  0.06613756  0.08603343  0.01433890  0.20536177  0.30000000  0.15000000    134.20
  29  -343.12597212  -343.11974130     0.00623083  0.04144695  0.05939546  0.00989924  0.16363822  0.30000000  0.15000000    139.00
  30  -343.11974130  -343.12939705    -0.00965575  0.03461126  0.06493724  0.01082287  0.27749084  0.30000000  0.15000000    143.61
  31  -343.12939705  -343.13140644    -0.00200939  0.03469256  0.04120040  0.00686673  0.25240189  0.30000000  0.15000000    148.37
  32  -343.13140644  -343.12658382     0.00482263  0.03469821  0.03779441  0.00629907  0.21187127  0.30000000  0.15000000    153.16
  33  -343.12658382  -343.12536074     0.00122308  0.03850440  0.05563875  0.00927313  0.19389561  0.30000000  0.15000000    157.98
  34  -343.12536074  -343.12766941    -0.00230867  0.05545761  0.06370501  0.01061750  0.22386816  0.30000000  0.15000000    162.75
  35  -343.12766941  -343.12143163     0.00623778  0.07031149  0.07785636  0.01297606  0.25714960  0.30000000  0.15000000    167.53
  36  -343.12143163  -343.12928732    -0.00785569  0.06321105  0.08423288  0.01403881  0.17830076  0.30000000  0.15000000    172.29
  37  -343.12928732  -343.12838649     0.00090083  0.04517723  0.04895344  0.00815891  0.16698406  0.30000000  0.15000000    177.09
  38  -343.12838649  -343.12719264     0.00119385  0.05140180  0.07115743  0.01185957  0.23006401  0.30000000  0.15000000    181.82
  39  -343.12719264  -343.12695048     0.00024216  0.05093795  0.06391665  0.01065278  0.26341111  0.30000000  0.15000000    186.60
  40  -343.12695048  -343.12294213     0.00400835  0.06536434  0.07304836  0.01217473  0.27770180  0.30000000  0.15000000    191.35
  41  -343.12294213  -343.12442418    -0.00148205  0.06219737  0.08051523  0.01341921  0.25476710  0.30000000  0.15000000    196.10
  42  -343.12442418  -343.12169530     0.00272888  0.06651039  0.08313111  0.01385518  0.27235370  0.30000000  0.15000000    200.95
  43  -343.12169530  -343.12278312    -0.00108782  0.08520783  0.10837537  0.01806256  0.23339655  0.30000000  0.15000000    205.66
  44  -343.12278312  -343.12995498    -0.00717186  0.08062429  0.09458226  0.01576371  0.16197369  0.30000000  0.15000000    210.41
  45  -343.12995498  -343.12649131     0.00346367  0.02475841  0.03219222  0.00536537  0.19033566  0.30000000  0.15000000    215.16
  46  -343.12649131  -343.11819234     0.00829897  0.05047853  0.05359824  0.00893304  0.18273797  0.30000000  0.15000000    219.92
  47  -343.11819234  -343.13170782    -0.01351548  0.06741894  0.09745991  0.01624332  0.21148219  0.30000000  0.15000000    224.66
  48  -343.13170782  -343.12530397     0.00640385  0.02100453  0.02763705  0.00460617  0.20361599  0.30000000  0.15000000    229.43
  49  -343.12530397  -343.11644483     0.00885914  0.05883444  0.06632733  0.01105455  0.19839601  0.30000000  0.15000000    234.16
  50  -343.11644483  -343.13103422    -0.01458939  0.08600869  0.11142124  0.01857021  0.21369658  0.30000000  0.15000000    238.97
  51  -343.13103422  -343.12597422     0.00506001  0.04437419  0.04607552  0.00767925  0.20283446  0.30000000  0.15000000    243.82
  52  -343.12597422  -343.13016578    -0.00419156  0.05588061  0.06245609  0.01040935  0.18178858  0.30000000  0.15000000    248.54
  53  -343.13016578  -343.12343687     0.00672890  0.02115898  0.03244228  0.00540705  0.25385958  0.30000000  0.15000000    253.29
  54  -343.12343687  -343.11960669     0.00383018  0.06855118  0.07366634  0.01227772  0.19981398  0.30000000  0.15000000    258.11
  55  -343.11960669  -343.12878845    -0.00918176  0.07361351  0.08124579  0.01354096  0.20506140  0.30000000  0.15000000    262.93
  56  -343.12878845  -343.12848444     0.00030401  0.06619597  0.07061629  0.01176938  0.16562219  0.30000000  0.15000000    267.71
  57  -343.12848444  -343.12487863     0.00360581  0.05003212  0.06910214  0.01151702  0.18483999  0.30000000  0.15000000    272.47
  58  -343.12487863  -343.12744102    -0.00256239  0.04955344  0.07270320  0.01211720  0.20767636  0.30000000  0.15000000    277.24
  59  -343.12744102  -343.12655110     0.00088992  0.04007262  0.05963671  0.00993945  0.19561418  0.30000000  0.15000000    282.02
  60  -343.12655110  -343.12976214    -0.00321104  0.06553731  0.07783454  0.01297242  0.20204356  0.30000000  0.15000000    286.69
  61  -343.12976214  -343.12734619     0.00241595  0.03485429  0.05110518  0.00851753  0.16583761  0.30000000  0.15000000    291.50
  62  -343.12734619  -343.12574610     0.00160009  0.04492803  0.05569667  0.00928278  0.26001263  0.30000000  0.15000000    296.17
  63  -343.12574610  -343.13253341    -0.00678731  0.07907297  0.08234717  0.01372453  0.16141362  0.23864482  0.11932241    301.03
  64  -343.13253341  -343.12205050     0.01048291  0.02366969  0.02756243  0.00459374  0.26827741  0.30000000  0.15000000    305.87
  65  -343.12205050  -343.12265412    -0.00060362  0.06978441  0.09821697  0.01636949  0.20604346  0.30000000  0.15000000    310.69
  66  -343.12265412  -343.12841103    -0.00575691  0.05293703  0.08109288  0.01351548  0.18312947  0.30000000  0.15000000    315.53
  67  -343.12841103  -343.12311121     0.00529982  0.02107746  0.03447895  0.00574649  0.17650565  0.30000000  0.15000000    320.30
  68  -343.12311121  -343.11635085     0.00676037  0.06674301  0.07019981  0.01169997  0.17486696  0.30000000  0.15000000    325.16
  69  -343.11635085  -343.12092224    -0.00457140  0.07232497  0.10140233  0.01690039  0.25284806  0.30000000  0.15000000    330.04
  70  -343.12092224  -343.12607578    -0.00515353  0.06665767  0.07652167  0.01275361  0.28176462  0.30000000  0.15000000    334.93
  71  -343.12607578  -343.12323944     0.00283633  0.04265422  0.06341634  0.01056939  0.19893270  0.30000000  0.15000000    339.79
  72  -343.12323944  -343.11787899     0.00536045  0.04707644  0.06068081  0.01011347  0.21384523  0.30000000  0.15000000    344.55
  73  -343.11787899  -343.12996756    -0.01208857  0.08424976  0.09650830  0.01608472  0.22700661  0.30000000  0.15000000    349.29
  74  -343.12996756  -343.12154477     0.00842280  0.02851631  0.03630870  0.00605145  0.24264168  0.30000000  0.15000000    354.08
  75  -343.12154477  -343.13023309    -0.00868832  0.10631338  0.11892191  0.01982032  0.26322723  0.30000000  0.15000000    358.89
  76  -343.13023309  -343.12431088     0.00592221  0.03482748  0.04164726  0.00694121  0.18530338  0.30000000  0.15000000    363.74
  77  -343.12431088  -343.12541596    -0.00110508  0.05776497  0.07952184  0.01325364  0.22772401  0.30000000  0.15000000    368.56
  78  -343.12541596  -343.12639850    -0.00098254  0.05685673  0.07651323  0.01275221  0.20551879  0.30000000  0.15000000    373.42
  79  -343.12639850  -343.13059544    -0.00419695  0.06005966  0.06578520  0.01096420  0.23790525  0.30000000  0.15000000    378.23
  80  -343.13059544  -343.12085316     0.00974229  0.05077627  0.05223111  0.00870519  0.22243566  0.30000000  0.15000000    383.00
  81  -343.12085316  -343.12954875    -0.00869559  0.06983170  0.08350770  0.01391795  0.21363216  0.30000000  0.15000000    387.77
  82  -343.12954875  -343.12532016     0.00422859  0.05258285  0.06000291  0.01000048  0.19941334  0.30000000  0.15000000    392.55
  83  -343.12532016  -343.12579219    -0.00047203  0.06004493  0.08206002  0.01367667  0.23857193  0.30000000  0.15000000    397.45
  84  -343.12579219  -343.11364845     0.01214373  0.04811706  0.07461538  0.01243590  0.23482313  0.30000000  0.15000000    402.23
  85  -343.11364845  -343.13005427    -0.01640581  0.08574124  0.09412481  0.01568747  0.28050271  0.30000000  0.15000000    407.01
  86  -343.13005427  -343.11692844     0.01312582  0.02584893  0.03626161  0.00604360  0.26137510  0.30000000  0.15000000    411.81
  87  -343.11692844  -343.12341334    -0.00648490  0.10733564  0.12532472  0.02088745  0.18947144  0.30000000  0.15000000    416.63
  88  -343.12341334  -343.12842851    -0.00501517  0.07828045  0.09648133  0.01608022  0.16426658  0.30000000  0.15000000    421.49
  89  -343.12842851  -343.12841944     0.00000907  0.06705161  0.06914036  0.01152339  0.20773080  0.30000000  0.15000000    426.34
  90  -343.12841944  -343.12567559     0.00274385  0.05578467  0.06776219  0.01129370  0.26196516  0.30000000  0.15000000    431.19
  91  -343.12567559  -343.11946026     0.00621534  0.05653557  0.07478177  0.01246363  0.23221920  0.30000000  0.15000000    435.95
  92  -343.11946026  -343.11459566     0.00486460  0.06620303  0.08755352  0.01459225  0.21845298  0.30000000  0.15000000    440.81
  93  -343.11459566  -343.11991497    -0.00531931  0.07463394  0.09494766  0.01582461  0.17553702  0.30000000  0.15000000    445.60
  94  -343.11991497  -343.12612137    -0.00620640  0.11997793  0.12384478  0.02064080  0.18812285  0.30000000  0.15000000    450.36
  95  -343.12612137  -343.10885918     0.01726219  0.07757143  0.08796391  0.01466065  0.26172273  0.30000000  0.15000000    455.10
  96  -343.10885918  -343.12044478    -0.01158560  0.19113573  0.19318880  0.03219813  0.19106772  0.30000000  0.15000000    459.85
  97  -343.12044478  -343.10712779     0.01331699  0.08727749  0.10739463  0.01789911  0.24185949  0.30000000  0.15000000    464.65
  98  -343.10712779  -343.12141465    -0.01428686  0.09617274  0.13610007  0.02268335  0.23396959  0.30000000  0.15000000    469.30
  99  -343.12141465  -343.11426382     0.00715083  0.10083473  0.11339926  0.01889988  0.16783732  0.30000000  0.15000000    474.21
 100  -343.11426382  -343.11777833    -0.00351451  0.07727293  0.09751202  0.01625200  0.22330049  0.30000000  0.15000000    478.94
 ? Warning
 ? No convergence in max. number of iterations

 END OF GEOMETRY OPTIMIZATION.

 Current geometry (xyz format, in Angstrom)

    4
 KS-SCF000/DEF2-TZVP  ENERGY=-343.11777833
 P         -0.0357055721       -0.0129667009        0.0623239269
 H          1.4180004389       -0.5774701395       -0.3945866357
 H         -0.7454376693       -0.3333048227       -1.0886322384
 H          0.4247862936        1.3092841094       -0.4321993338

 **********************************************************************************************************************************

 Geometry written to block  1 of record 700


 **********************************************************************************************************************************
 DATASETS  * FILE   NREC   LENGTH (MB)   RECORD NAMES
              1      21       35.08       500      610      700      900      700(1)   950      970     1000      129      960   
                                          VAR    BASINP    GEOM    SYMINP    GEOM     ZMAT    AOBASIS   BASIS     P2S    ABASIS    
                                         1100     1400     1410     1200     1210     1080     1600     1650     1300     1700   
                                           S        T        V       H0       H01     AOSYM     SMH    MOLCAS    ERIS     OPER   
                                         1800   
                                         GRID   

              2       6        2.93       700     1000      520     1800     2100      700(1)
                                         GEOM     BASIS   MCVARS    GRID      RKS     GEOM   

 PROGRAMS   *        TOTAL      OPTG    KS-SCF       INT
 CPU TIMES  *       481.79    478.94      1.43      0.72
 REAL TIME  *       498.49 SEC
 DISK USED  *        51.48 MB
 **********************************************************************************************************************************


 PROGRAM * HESSIAN

 Computing numerical hessian using default procedure for command KS-SCF

 Using AUTO symmetry option

 Running default procedure: KS-SCF000
 

 Recomputing wavefunction at reference geometry

 Numerically approximating hessian using central gradient differences

 Task list generated. Total number of displacements:     24

   20 tasks completed, CPU=22s Elapsed=22s
 Tasks on processor    0 finished.  CPU=     26.77 sec, Elapsed=     27.29 sec. All tasks on all processors finished.

 KS-SCF hessian saved to record  5300.2

 PROGRAM * FREQUENCIES (Calculation of harmonic vibrational spectra for KS-SCF)


 Permanent Dipole Moment [debye]
   1-  3   -0.048183    0.089351   -0.481092

 Dipole Moment Norm    0.4916858 [debye]

 Dipole Moment Derivatives [debye/ang]
                   1             2             3             4             5             6             7             8
         1     1.3509851    -0.0850155    -0.2056981    -0.9001403     0.1808558     0.5820365    -0.2282653    -0.0072186
         2    -0.1549509     1.3131403    -0.0574068     0.4495942    -0.2932110    -0.3665783    -0.0403855    -0.1687214
         3    -0.0404702    -0.0858594     1.6505210     0.1626937    -0.0831594    -0.3441455    -0.1384317    -0.0078883
                   9            10            11            12
         1    -0.4955576    -0.2219898    -0.0907571     0.1196305
         2    -0.2766760    -0.2544358    -0.8519919     0.7008685
         3    -0.9671030     0.0155116     0.1777210    -0.3396709

 Projecting out rotations and translations

   Low Vibration      Wavenumber
        Nr             [1/cm] 
        1                0.00
        2                0.00
        3                0.00
        4                0.00
        5                0.00
        6                0.00

     Vibration        Wavenumber
        Nr             [1/cm] 
        1             1017.49
        2             1097.63
        3             1123.51
        4             1403.88
        5             2047.12
        6             2588.61

 FREQUENCIES * CALCULATION OF NORMAL MODES FOR KS-SCF


 Atomic Coordinates

  Nr  Atom  Charge       X              Y              Z

   1   P    15.00   -0.067473752   -0.024503513    0.117775153
   2   H     1.00    2.679632474   -1.091260409   -0.745660674
   3   H     1.00   -1.408673038   -0.629854831   -2.057216781
   4   H     1.00    0.802729756    2.474188386   -0.816738372

 Gradient norm at reference geometry: 0.18428D+00

 ?WARNING: GRADIENT NORM NOT ZERO!

 Normal Modes

                              1 A         2 A         3 A         4 A         5 A  
 Wavenumbers [cm-1]         1017.49     1097.63     1123.51     1403.88     2047.12
 Intensities [km/mol]         18.68        4.08       10.01       60.97       53.29
 Intensities [relative]       30.64        6.68       16.41      100.00       87.41
           PX1             -0.02117    -0.00551    -0.02442    -0.02329    -0.00883
           PY1             -0.00495    -0.02226     0.00720     0.01440    -0.02757
           PZ1              0.04097    -0.00037    -0.00594     0.00560     0.00968
           HX2             -0.00460     0.38657     0.15517     0.82908     0.00877
           HY2              0.16012     0.40090     0.35869    -0.45092    -0.02925
           HZ2             -0.48539     0.27957    -0.23227    -0.24087     0.01271
           HX3              0.52123    -0.39945    -0.06403    -0.00391    -0.01919
           HY3              0.18497     0.48063    -0.47035    -0.03433    -0.01093
           HZ3             -0.34006     0.07681     0.15097     0.00139    -0.00255
           HX4              0.13388     0.18229     0.65934    -0.10944     0.28194
           HY4             -0.19291    -0.19739    -0.10971     0.04270     0.88765
           HZ4             -0.43380    -0.34511     0.26392     0.06723    -0.30755

                              6 A  
 Wavenumbers [cm-1]         2588.61
 Intensities [km/mol]         50.39
 Intensities [relative]       82.64
           PX1             -0.01652
           PY1             -0.00804
           PZ1             -0.02651
           HX2              0.01229
           HY2              0.00527
           HZ2              0.00731
           HX3              0.48946
           HY3              0.23479
           HZ3              0.81558
           HX4              0.00609
           HY4              0.00715
           HZ4             -0.00816


 Normal Modes of low/zero frequencies

                                  1           2           3           4           5
 Wavenumbers [cm-1]            0.00        0.00        0.00        0.00        0.00
 Intensities [km/mol]          0.00        0.00        0.00        0.00        0.00
 Intensities [relative]        0.00        0.00        0.00        0.00        0.00
           PX1             -0.01836     0.00272     0.01146    -0.01152     0.16580
           PY1              0.11296     0.02131    -0.07279     0.05059    -0.00762
           PZ1              0.06502    -0.01298     0.02847     0.10976     0.04512
           HX2             -0.15661    -0.07247     0.16676     0.16506     0.08036
           HY2              0.12387    -0.15356     0.53636     0.12159    -0.09002
           HZ2             -0.38832    -0.03615    -0.23001     0.58385    -0.12493
           HX3             -0.36234     0.07975     0.05093     0.34873     0.00365
           HY3              0.15737     0.63809     0.06586    -0.10614    -0.00454
           HZ3              0.26477    -0.23215    -0.03445    -0.06877     0.14426
           HX4             -0.16050     0.38889    -0.43770     0.03120     0.16647
           HY4              0.12908     0.10120     0.23118     0.04201    -0.04318
           HZ4             -0.02424     0.56021     0.42296     0.12659    -0.04933

                                  6
 Wavenumbers [cm-1]            0.00
 Intensities [km/mol]          0.00
 Intensities [relative]        0.00
           PX1             -0.04710
           PY1             -0.09773
           PZ1              0.10225
           HX2             -0.19955
           HY2             -0.35145
           HZ2             -0.06930
           HX3             -0.23469
           HY3              0.04259
           HZ3              0.17886
           HX4              0.13259
           HY4             -0.17391
           HZ4              0.06588


 Frequencies dumped to record   5400.2

 Zero point energy:  0.02113740 [H]     4639.12 [1/CM]       55.50 [KJ/MOL]

 Recomputing wavefunction at initial geometry


 **********************************************************************************************************************************
 DATASETS  * FILE   NREC   LENGTH (MB)   RECORD NAMES
              1      21       35.08       500      610      700      900      700(1)   950      970     1000      129      960   
                                          VAR    BASINP    GEOM    SYMINP    GEOM     ZMAT    AOBASIS   BASIS     P2S    ABASIS    
                                         1100     1400     1410     1200     1210     1080     1600     1650     1300     1700   
                                           S        T        V       H0       H01     AOSYM     SMH    MOLCAS    ERIS     OPER   
                                         1800   
                                         GRID   

              2      10        3.18       700     1000      520     1800     2100      700(1)   701     5300     5450     5400   
                                         GEOM     BASIS   MCVARS    GRID      RKS     GEOM     GEOM     HESS     NMOD     FREQ   

 PROGRAMS   *        TOTAL      FREQ      OPTG    KS-SCF       INT
 CPU TIMES  *       510.02     28.18    478.94      1.43      0.72
 REAL TIME  *       527.85 SEC
 DISK USED  *        51.97 MB
 **********************************************************************************************************************************

 Density functional group M06=XC-M06
 Functional: XC-M06(via MFM 1.6)                                               Gradient terms: 1
 Use libxcgrid:  F
 Use grid at  1800.2
 

 Exact exchange will be calculated, factor:  0.2700

 Functional: XC-M06                    Factor:  1.0000
 
   47647 words reserved for DFT integration

 PROGRAM * RKS-SCF (Restricted closed shell Kohn-Sham)     Authors: W. Meyer, H.-J. Werner, P.J. Knowles, 1993

 NUMBER OF ELECTRONS:       9+    9-    SPACE SYMMETRY=1    SPIN SYMMETRY: Singlet 
 CONVERGENCE THRESHOLDS:    1.00E-06 (Density)    1.00E-06 (Energy)
 MAX. NUMBER OF ITERATIONS:       60
 INTERPOLATION TYPE:            DIIS
 INTERPOLATION STEPS:              2 (START)      1 (STEP)
 LEVEL SHIFTS:                  0.00 (CLOSED)  0.00 (OPEN) 



 Use fine grid record 1800.2 for energy threshold  1.0D-06
 Orbital guess generated from atomic densities. Full valence occupancy:    9

 Molecular orbital dump at record        2101.2

 Initial occupancy:   9

 ITERATION    DDIFF          GRAD             ENERGY        2-EL.EN.            DIPOLE MOMENTS         DIIS   ORB.
    1      0.000D+00      0.000D+00      -343.11079311    331.727081    0.14012    0.02270   -0.34068    0    start
    2      0.000D+00      0.306D-02      -343.11306369    328.138447   -0.19910    0.04100   -0.03404    1    diag
    3      0.721D-02      0.313D-02      -343.11775630    329.822422   -0.00758    0.03933   -0.19589    2    diag
    4      0.328D-02      0.237D-03      -343.11777447    329.850464   -0.02755    0.03260   -0.18648    3    diag
    5      0.341D-03      0.802D-04      -343.11777784    329.852332   -0.01530    0.03616   -0.18966    4    diag
    6      0.746D-04      0.281D-04      -343.11777830    329.851329   -0.01947    0.03505   -0.18956    5    diag
    7      0.234D-04      0.446D-05      -343.11777832    329.852025   -0.01891    0.03517   -0.18916    6    diag
    8      0.482D-05      0.124D-05      -343.11777832    329.852223   -0.01895    0.03516   -0.18930    7    diag
    9      0.944D-06      0.105D-06      -343.11777832    329.852195   -0.01896    0.03515   -0.18929    0    orth

 Final occupancy:   9

 !RKS STATE  1.1 Energy              -343.117778316339
 Nuclear energy                        16.67154132
 One-electron energy                 -506.83080898
 Two-electron energy                  164.92609734
 SCF exchange energy                  -23.58949987     Factor= 0.2700
 Density functional                   -17.88460800     XC-M06=-17.88460800
 Virial quotient                       -1.00281732
 !RKS STATE  1.1 Dipole moment         -0.01895803     0.03515350    -0.18928567
 Dipole moment /Debye                  -0.04818336     0.08934542    -0.48108467

 Orbital energies:

         1.1          2.1          3.1          4.1          5.1          6.1          7.1          8.1          9.1         10.1
    -77.242007    -6.662001    -4.781291    -4.780699    -4.776892    -0.645261    -0.400467    -0.362445    -0.288392    -0.003020

        11.1
      0.025861


 HOMO      9.1    -0.288392 =      -7.8476eV
 LUMO     10.1    -0.003020 =      -0.0822eV
 LUMO-HOMO         0.285372 =       7.7654eV


 **********************************************************************************************************************************
 DATASETS  * FILE   NREC   LENGTH (MB)   RECORD NAMES
              1      21       35.08       500      610      700      900      700(1)   950      970     1000      129      960   
                                          VAR    BASINP    GEOM    SYMINP    GEOM     ZMAT    AOBASIS   BASIS     P2S    ABASIS    
                                         1100     1400     1410     1200     1210     1080     1600     1650     1300     1700   
                                           S        T        V       H0       H01     AOSYM     SMH    MOLCAS    ERIS     OPER   
                                         1800   
                                         GRID   

              2      11        5.73       700     1000      520     1800     2100      700(1)   701     5300     5450     5400   
                                         GEOM     BASIS   MCVARS    GRID      RKS     GEOM     GEOM     HESS     NMOD     FREQ   
                                         2101   
                                          RKS  

 PROGRAMS   *        TOTAL    KS-SCF      FREQ      OPTG    KS-SCF       INT
 CPU TIMES  *       511.22      1.14     28.18    478.94      1.43      0.72
 REAL TIME  *       529.07 SEC
 DISK USED  *        51.97 MB
 **********************************************************************************************************************************


 PROGRAM * SURF (Surface generation)   Authors: G. Rauhut 2004, T. Hrenar 2005, M. Neff 2012, D. Oschetzki 2013

 Freezing grid

 Reference geometry in SURF calculation

   1  P    15.00    -0.067473752   -0.024503513    0.117775153
   2  H     1.00     2.679632474   -1.091260409   -0.745660674
   3  H     1.00    -1.408673038   -0.629854831   -2.057216781
   4  H     1.00     0.802729756    2.474188386   -0.816738372


 The phase of the following normal coordinates was changed:
  1

 Information about detected symmetry elements:

 Detected point group: C1 

 Starting mppx-calculation of energy surfaces:

 Calculating 1D potential

 1D:   6  Points:   6 Conv: 0.00082945 0.00082954
 1D:   5  Points:   6 Conv: 0.00142997 0.00142999
 1D:   4  Points:   6 Conv: 0.00345436 0.00345436
 1D:   3  Points:   6 Conv: 0.00092133 0.00092133
 1D:   2  Points:   6 Conv: 0.00115966 0.00115966
 1D:   1  Points:   6 Conv: 0.00020881 0.00020881

 The determined shift and scalnm parameters are:

 scalnm,mode= 1,sfac=1.000,shift= 0
 scalnm,mode= 2,sfac=1.000,shift= 0
 scalnm,mode= 3,sfac=1.000,shift= 0
 scalnm,mode= 4,sfac=1.000,shift= 0
 scalnm,mode= 5,sfac=1.000,shift= 0
 scalnm,mode= 6,sfac=1.000,shift= 0

 Calculating 2D coupling potential

 2D:   6   5  Points:  16 Conv: 0.00000074 0.00000074
 2D:   6   4  Points:  16 Conv: 0.00000039 0.00000039
 2D:   6   3  Points:  16 Conv: 0.00000131 0.00000135
 2D:   6   2  Points:  16 Conv: 0.00000361 0.00000384
 2D:   6   1  Points:  16 Conv: 0.00000567 0.00000588
 2D:   5   4  Points:  16 Conv: 0.00000142 0.00000145
 2D:   5   3  Points:  16 Conv: 0.00000317 0.00000316
 2D:   5   2  Points:  16 Conv: 0.00000332 0.00000332
 2D:   5   1  Points:  16 Conv: 0.00000409 0.00000407
 2D:   4   3  Points:  16 Conv: 0.00000297 0.00000302
 2D:   4   2  Points:  16 Conv: 0.00000483 0.00000461
 2D:   4   1  Points:  16 Conv: 0.00000378 0.00000388
 2D:   3   2  Points:  16 Conv: 0.00000300 0.00000310
 2D:   3   1  Points:  16 Conv: 0.00000296 0.00000285
 2D:   2   1  Points:  16 Conv: 0.00000716 0.00000700

 Calculating 3D coupling potential

 3D:   6   5   4  Points:    8 Conv: 0.00000019
 3D:   6   5   3  Points:    8 Conv: 0.00000098
 3D:   6   5   2  Points:    8 Conv: 0.00000058
 3D:   6   5   1  Points:    8 Conv: 0.00000092
 3D:   6   4   3  Points:    8 Conv: 0.00000039
 3D:   6   4   2  Points:    8 Conv: 0.00000081
 3D:   6   4   1  Points:    8 Conv: 0.00000070
 3D:   6   3   2  Points:    8 Conv: 0.00000212
 3D:   6   3   1  Points:    8 Conv: 0.00000123
 3D:   6   2   1  Points:    8 Conv: 0.00000223
 3D:   5   4   3  Points:    8 Conv: 0.00000086
 3D:   5   4   2  Points:    8 Conv: 0.00000051
 3D:   5   4   1  Points:    8 Conv: 0.00000062
 3D:   5   3   2  Points:    8 Conv: 0.00000079
 3D:   5   3   1  Points:    8 Conv: 0.00000092
 3D:   5   2   1  Points:    8 Conv: 0.00000071
 3D:   4   3   2  Points:    8 Conv: 0.00000189
 3D:   4   3   1  Points:    8 Conv: 0.00000167
 3D:   4   2   1  Points:    8 Conv: 0.00000032
 3D:   3   2   1  Points:    8 Conv: 0.00000037

 Grid calculation completed

 Formal number of grid points:     85856
 Actual number of grid points:       556 Time (sec):        260.7
 Number of 1D grid points:           156 Time (sec):         72.6
 Number of 2D grid points:           240 Time (sec):        111.9
 Number of 3D grid points:           160 Time (sec):         76.2

 CPU-Time for SURF calculation:        261.9 sec.


 **********************************************************************************************************************************
 DATASETS  * FILE   NREC   LENGTH (MB)   RECORD NAMES
              1      21       35.07       500      610      700      900      700(1)   950      970     1000      129      960   
                                          VAR    BASINP    GEOM    SYMINP    GEOM     ZMAT    AOBASIS   BASIS     P2S    ABASIS    
                                         1100     1400     1410     1200     1210     1080     1600     1650     1300     1700   
                                           S        T        V       H0       H01     AOSYM     SMH    MOLCAS    ERIS     OPER   
                                         1800   
                                         GRID   

              2      14       16.90       700     1000      520     1800     2100      700(1)   701     5300     5450     5400   
                                         GEOM     BASIS   MCVARS    GRID      RKS     GEOM     GEOM     HESS     NMOD     FREQ   
                                         2101     5600     5650     5550   
                                          RKS     SURF    DIPOLE   VIBINFO    

 PROGRAMS   *        TOTAL      SURF       INT    KS-SCF       INT    KS-SCF       INT    KS-SCF       INT    KS-SCF       INT
 CPU TIMES  *       773.14      2.55      0.66      1.28      0.65      1.18      0.64      1.16      0.63      1.13      0.65
 REAL TIME  *       811.14 SEC
 DISK USED  *        65.44 MB
 **********************************************************************************************************************************


 PROGRAM * POLY (Transformation of PES grid representation to an analytic representation)   Authors: G. Rauhut 2008, M. Neff 2010, B. Ziegler 2019
 
 Reading potential information from:      5600.2
 Reading dipole information from:         5650.2
 
 Watson correction term has NOT been added to the potential.

 Time to compute the number of basis functions:    0.1 sec
 Number of basis functions:  5

        dim  chi_av       chi_max      time in sec      Surface

 Energy 1D   0.1500E-14   0.8387E-14     0.0            1
        2D   0.2096E-14   0.1124E-13     0.0            1  5
        3D   0.1820E-14   0.7904E-14     0.1            6  4  1

 Dipole 1D   0.7066E-12   0.5099E-11     0.0            6
        2D   0.1927E-11   0.2782E-10     0.0            6  2
        3D   0.7332E-12   0.7104E-11     0.3            6  5  2
 
 Harmonic frequencies obtained from polynomial fit

   Mode        Ref.         Fit

   6 A       2588.61     2581.63
   5 A       2047.12     2054.62
   4 A       1403.88     1425.05
   3 A       1123.51     1135.90
   2 A       1097.63     1098.58
   1 A       1017.49     1038.76
 

 CPU-Time for POLY calculation:          0.6 sec.


 **********************************************************************************************************************************
 DATASETS  * FILE   NREC   LENGTH (MB)   RECORD NAMES
              1      21       35.07       500      610      700      900      700(1)   950      970     1000      129      960   
                                          VAR    BASINP    GEOM    SYMINP    GEOM     ZMAT    AOBASIS   BASIS     P2S    ABASIS    
                                         1100     1400     1410     1200     1210     1080     1600     1650     1300     1700   
                                           S        T        V       H0       H01     AOSYM     SMH    MOLCAS    ERIS     OPER   
                                         1800   
                                         GRID   

              2      16       17.06       700     1000      520     1800     2100      700(1)   701     5300     5450     5400   
                                         GEOM     BASIS   MCVARS    GRID      RKS     GEOM     GEOM     HESS     NMOD     FREQ   
                                         2101     5600     5650     5550     5750     5770   
                                          RKS     SURF    DIPOLE   VIBINFO   POLY      MU  

 PROGRAMS   *        TOTAL      POLY    KS-SCF       INT    KS-SCF       INT    KS-SCF       INT    KS-SCF       INT    KS-SCF
 CPU TIMES  *       773.79      0.59      1.24      0.66      1.28      0.65      1.18      0.64      1.16      0.63      1.13
 REAL TIME  *       811.79 SEC
 DISK USED  *        65.44 MB
 **********************************************************************************************************************************


 PROGRAM * VPT2 (2nd Order Vibrational Perturbation Theory)   Authors: R. Ramakrishnan, G. Rauhut 2015, B. Schroeder 2017

 Reading potential from record        5600.2

 Asymmetric top molecule


 Non-zero Coriolis zeta constants

   Modes        a             b             c

   6  5     -0.011305     -0.002835      0.014069
   6  4      0.041854      0.027670     -0.038124
   6  3      0.426855     -0.113109     -0.228445
   6  2     -0.400650     -0.361877      0.342011
   6  1      0.255254     -0.642074      0.034971
   5  4      0.077051      0.022157      0.107289
   5  3      0.204395     -0.281177     -0.627711
   5  2     -0.375922      0.044797     -0.216543
   5  1      0.464900     -0.082948      0.187862
   4  3      0.202954      0.222173      0.359288
   4  2     -0.030830     -0.354629      0.527379
   4  1     -0.284497     -0.393181     -0.177532
   3  2      0.171854      0.088522     -0.390362
   3  1     -0.102580     -0.493101     -0.156930
   2  1      0.429372     -0.131622      0.285257
 

 VPT2 Vibration-rotation interaction constants (in cm-1)

                       Harmonic                                Coriolis                                Anharmonic
           _________________________________       _________________________________       _________________________________

 Mode           A           B           C               A           B           C               A           B           C

   6       -0.015189   -0.012724   -0.003591       -0.023674   -0.023097   -0.005926        0.064640    0.071787    0.022164
   5       -0.028894   -0.003878   -0.013845       -0.034242   -0.005781   -0.025702        0.127479    0.026164    0.071193
   4       -0.012153   -0.027665   -0.023635       -0.027315   -0.057035   -0.066190        0.053757    0.182906    0.141484
   3       -0.021581   -0.018357   -0.006041        0.019764   -0.114662    0.034551       -0.000854    0.006255    0.003589
   2       -0.014477   -0.020757   -0.007459       -0.153731    0.017970    0.002867       -0.013997    0.016630    0.013666
   1       -0.015577   -0.005643   -0.015509        0.225030    0.187163    0.062801       -0.007932   -0.006559   -0.001024


                          Total
           _________________________________

 Mode           A           B           C

   6        0.025777    0.035967    0.012646
   5        0.064343    0.016506    0.031646
   4        0.014289    0.098206    0.051659
   3       -0.002671   -0.126763    0.032100
   2       -0.182205    0.013843    0.009074
   1        0.201521    0.174961    0.046269


 VPT2 Quartic centrifugal distortion constants (in cm-1)

                  Tau               Tau'

    AAAA    -0.482833E-03     -0.482833E-03
    BBBB    -0.399970E-03     -0.399970E-03
    CCCC    -0.282971E-03     -0.282971E-03
    BBAA    -0.328289E-04     -0.434076E-03
    CCAA    -0.453194E-04     -0.318430E-03
    CCBB    -0.167094E-03     -0.354863E-03


 VPT2 Quartic centrifugal distortion constants in the Nielsen formalism (cm-1)


    DJ       0.862046E-04
    DK       0.187862E-04
    DJK      0.157173E-04
    R5      -0.357168E-05
    R6       0.418531E-06
    dJ       0.731243E-05


 VPT2 State-dependent vibrationally averaged rotational constants (in cm-1) 

   Ref.         4.38913     3.77322     3.37915

   |000000>     4.32860     3.66686     3.28745
   |000001>     4.30283     3.63089     3.27481
   |000002>     4.27705     3.59492     3.26216
   |000010>     4.26426     3.65035     3.25581
   |000011>     4.23848     3.61439     3.24316
   |000020>     4.19992     3.63385     3.22416
   |000100>     4.31431     3.56865     3.23580
   |000101>     4.28854     3.53268     3.22315
   |000110>     4.24997     3.55215     3.20415
   |000200>     4.30002     3.47045     3.18414
   |001000>     4.33127     3.79362     3.25536
   |001001>     4.30550     3.75765     3.24271
   |001010>     4.26693     3.77712     3.22371
   |001100>     4.31699     3.69541     3.20370
   |002000>     4.33395     3.92038     3.22326
   |010000>     4.51081     3.65301     3.27838
   |010001>     4.48503     3.61705     3.26573
   |010010>     4.44647     3.63651     3.24673
   |010100>     4.49652     3.55481     3.22672
   |011000>     4.51348     3.77978     3.24628
   |020000>     4.69301     3.63917     3.26931
   |100000>     4.12708     3.49190     3.24119
   |100001>     4.10131     3.45593     3.22854
   |100010>     4.06274     3.47539     3.20954
   |100100>     4.11279     3.39369     3.18953
   |101000>     4.12975     3.61866     3.20909
   |110000>     4.30929     3.47805     3.23211
   |200000>     3.92556     3.31694     3.19492


 VPT2 zero-point vibrational energy (in cm^-1)

 Harmonic:        4667.27205
 Anharmonic:       -84.72979
 Kinetic:           -1.56172
 Total:           4580.98054

 Results of VPT2 calculation (Frequencies in cm-1)


 Fundamentals

       Mode           Harmonic    Anharmonic     Intensity
       6^1 A           2581.63       2516.69         49.54
       5^1 A           2054.62       1940.22         40.42
       4^1 A           1425.05       1236.60         62.14
       3^1 A           1135.90       1107.93         10.26
       2^1 A           1098.58       1059.23          3.82
       1^1 A           1038.76       1004.97         19.25


 Overtones

       Mode           Harmonic    Anharmonic     Intensity
       5^2 A           4109.25       3791.07          0.57
       4^2 A           2850.10       2324.43          0.88
       3^2 A           2271.79       2217.44          0.32
       2^2 A           2197.17       2110.27          0.14
       1^2 A           2077.53       2000.74         12.26


 Combination bands

       Mode           Harmonic    Anharmonic     Intensity
  5^1  6^1 A           4636.25       4455.82          0.01
  4^1  6^1 A           4006.68       3752.25          0.01
  3^1  6^1 A           3717.52       3611.28          0.10
  2^1  6^1 A           3680.21       3559.18          0.12
  1^1  6^1 A           3620.39       3515.51          0.07
  4^1  5^1 A           3479.67       3176.96          0.00
  3^1  5^1 A           3190.52       3032.56          0.15
  2^1  5^1 A           3153.21       2992.38          0.08
  1^1  5^1 A           3093.39       2936.45          0.02
  3^1  4^1 A           2560.95       2323.42          1.12
  2^1  4^1 A           2523.63       2259.26          1.47
  1^1  4^1 A           2463.81       2220.54          0.41
  2^1  3^1 A           2234.48       2165.45          0.11
  1^1  3^1 A           2174.66       2105.89          0.25
  1^1  2^1 A           2137.35       2060.26          0.28

 CPU-Time for VPT2 calculation:          0.0 sec.


 **********************************************************************************************************************************
 DATASETS  * FILE   NREC   LENGTH (MB)   RECORD NAMES
              1      21       35.07       500      610      700      900      700(1)   950      970     1000      129      960   
                                          VAR    BASINP    GEOM    SYMINP    GEOM     ZMAT    AOBASIS   BASIS     P2S    ABASIS    
                                         1100     1400     1410     1200     1210     1080     1600     1650     1300     1700   
                                           S        T        V       H0       H01     AOSYM     SMH    MOLCAS    ERIS     OPER   
                                         1800   
                                         GRID   

              2      16       17.06       700     1000      520     1800     2100      700(1)   701     5300     5450     5400   
                                         GEOM     BASIS   MCVARS    GRID      RKS     GEOM     GEOM     HESS     NMOD     FREQ   
                                         2101     5600     5650     5550     5750     5770   
                                          RKS     SURF    DIPOLE   VIBINFO   POLY      MU  

 PROGRAMS   *        TOTAL      VPT2      POLY    KS-SCF       INT    KS-SCF       INT    KS-SCF       INT    KS-SCF       INT
 CPU TIMES  *       773.84      0.01      0.59      1.24      0.66      1.28      0.65      1.18      0.64      1.16      0.63
 REAL TIME  *       811.84 SEC
 DISK USED  *        65.44 MB
 **********************************************************************************************************************************

 VPT2/DEF2-TZVP energy=      0.000000000000

            VPT2            POLY          KS-SCF          KS-SCF          KS-SCF          KS-SCF          KS-SCF          KS-SCF
   -343.11210255   -343.11210255   -343.11210255   -343.11555616   -343.10809639   -343.12087166   -343.10841794   -343.12127280
 **********************************************************************************************************************************
 Molpro calculation terminated with 1 warning(s)
