
 Primary working directories    : /jobfs/7706454.gadi-pbs/molpro.2aveHXdVbp
 Secondary working directories  : /jobfs/7706454.gadi-pbs/molpro.2aveHXdVbp
 Wavefunction directory         : /home/561/pk8622/wfu/
 Main file repository           : /jobfs/7706454.gadi-pbs/molpro.2aveHXdVbp/

 id        : anu

 Nodes                            nprocs
 gadi-cpu-clx-0767.gadi.nci.org.au    4

 Using customized tuning parameters: mindgm=1; mindgv=20; mindgc=4; mindgr=1; noblas=0; minvec=7
 default implementation of scratch files=df  


 Variables initialized (934), CPU time= 0.01 sec
 ***,Geom opt + VPT2 for phosphorous trifluoride
 
 memory,40,m
 basis=def2-TZVP
 
 orient,mass
 geomtyp=xyz
 geometry={
 4
 P         -0.53161        2.14075       -0.22716
 F          1.00710        1.97419        0.06484
 F         -0.88604        2.64957        1.22063
 F         -0.88604        0.63556        0.07185
 }
 mass,iso
 
 ks,M06
 optg
 
 frequencies,symm=auto
 
 label1
 {ks,M06
 start,atden}
 
 surf,start1D=label1,type=qff,sym=auto
 poly,type=qff
 vpt2,combi=1
 Commands  initialized (763), CPU time= 0.02 sec, 617 directives.
 Default parameters read. Elapsed time= 0.15 sec

 Checking input...
 Passed
1


                                         ***  PROGRAM SYSTEM MOLPRO  ***
                                       Copyright, TTI GmbH Stuttgart, 2015
                                    Version 2019.2 linked Nov 21 2019 12:21:21


 **********************************************************************************************************************************
 LABEL *   Geom opt + VPT2 for phosphorous trifluoride                                   
  64 bit mppx version                                                                    DATE: 24-Jun-20          TIME: 10:09:59  
 **********************************************************************************************************************************

 SHA1:             8dbd9ae1082e4ce945b0f27595c9eb2d4aa09004
 **********************************************************************************************************************************

 Variable memory set to   40000000 words,  buffer space 

 SETTING BASIS          =    DEF2-TZVP
 SETTING GEOMTYP        =    XYZ
 ZCENTRE=MASS
 


 Using masses of most abundant isotopes

 **********************************************************************************************************************************


 Recomputing integrals since basis changed


 Using spherical harmonics

 Library entry P      S def2-TZVP            selected for orbital group  1
 Library entry P      P def2-TZVP            selected for orbital group  1
 Library entry P      D def2-TZVP            selected for orbital group  1
 Library entry P      F def2-TZVP            selected for orbital group  1
 Library entry F      S def2-TZVP            selected for orbital group  2
 Library entry F      P def2-TZVP            selected for orbital group  2
 Library entry F      D def2-TZVP            selected for orbital group  2
 Library entry F      F def2-TZVP            selected for orbital group  2


 PROGRAM * SEWARD (Integral evaluation for generally contracted gaussian basis sets)     Author: Roland Lindh, 1990

 Geometry written to block  1 of record 700

 Orientation using atomic masses  
 Molecule type: Asymmetric top
 Rotational constants:       7.7885963      4.9481713      7.7886454 GHz

 Point group  C1  



 ATOMIC COORDINATES

 NR  ATOM    CHARGE       X              Y              Z

   1  P      15.00    0.000004533   -1.016023860   -0.000002606
   2  F       9.00    0.315805708    0.552151789    2.509898203
   3  F       9.00    2.015719111    0.552156644   -1.528445973
   4  F       9.00   -2.331532209    0.552151016   -0.981447981

 Bond lengths in Bohr (Angstrom)

 1-2  2.976324464  1-3  2.976312228  1-4  2.976318371
     ( 1.575003079)     ( 1.574996604)     ( 1.574999854)

 Bond angles

  2-1-3   94.79504110   2-1-4   94.79480529   3-1-4   94.79475190

 NUCLEAR CHARGE:                   42
 NUMBER OF PRIMITIVE AOS:         222
 NUMBER OF SYMMETRY AOS:          201
 NUMBER OF CONTRACTIONS:          130   (  130A   )
 NUMBER OF CORE ORBITALS:           8   (    8A   )
 NUMBER OF VALENCE ORBITALS:       16   (   16A   )


 NUCLEAR REPULSION ENERGY  191.53413077


 Eigenvalues of metric

         1 0.438E-02 0.493E-02 0.493E-02 0.193E-01 0.193E-01 0.255E-01 0.389E-01 0.516E-01


 Contracted 2-electron integrals neglected if value below      1.0D-11
 AO integral compression algorithm  1   Integral accuracy      1.0D-11

     128.975 MB (compressed) written to integral file ( 37.0%)


 NUMBER OF SORTED TWO-ELECTRON INTEGRALS:   36256870.     BUFFER LENGTH:  32768
 NUMBER OF SEGMENTS:   3  SEGMENT LENGTH:   15998004      RECORD LENGTH: 524288

 Memory used in sort:      16.56 MW

 SORT1 READ    43554457. AND WROTE    28438634. INTEGRALS IN     83 RECORDS. CPU TIME:     1.00 SEC, REAL TIME:     1.13 SEC
 SORT2 READ    28438634. AND WROTE    36256870. INTEGRALS IN    492 RECORDS. CPU TIME:     0.70 SEC, REAL TIME:     0.79 SEC

 FILE SIZES:   FILE 1:   159.6 MBYTE,  FILE 4:   348.2 MBYTE,   TOTAL:    507.8 MBYTE

 OPERATOR DM      FOR CENTER  0  COORDINATES:    0.000000    0.000000    0.000000


 **********************************************************************************************************************************
 DATASETS  * FILE   NREC   LENGTH (MB)   RECORD NAMES
              1      19      135.15       500      610      700      900      950      970     1000      129      960     1100   
                                          VAR    BASINP    GEOM    SYMINP    ZMAT    AOBASIS   BASIS     P2S    ABASIS      S 
                                         1400     1410     1200     1210     1080     1600     1650     1300     1700   
                                           T        V       H0       H01     AOSYM     SMH    MOLCAS    ERIS     OPER   

 PROGRAMS   *        TOTAL       INT
 CPU TIMES  *        15.47     14.77
 REAL TIME  *        16.07 SEC
 DISK USED  *       508.14 MB
 **********************************************************************************************************************************

 Density functional group M06=XC-M06
 Functional: XC-M06(via MFM 1.6)                                               Gradient terms: 1
 Use libxcgrid:  F
 Use grid at  1800.2
 

 Exact exchange will be calculated, factor:  0.2700

 Functional: XC-M06                    Factor:  1.0000
 
 Generated new metagrid on record  1800.2 with target accuracy 1.0D-06 and 28290 points in CPU time    0.4
 Computed new grid on record 1800.1 in CPU time    0.4
  107512 words reserved for DFT integration

 PROGRAM * RKS-SCF (Restricted closed shell Kohn-Sham)     Authors: W. Meyer, H.-J. Werner, P.J. Knowles, 1993

 NUMBER OF ELECTRONS:      21+   21-    SPACE SYMMETRY=1    SPIN SYMMETRY: Singlet 
 CONVERGENCE THRESHOLDS:    1.00E-06 (Density)    1.00E-06 (Energy)
 MAX. NUMBER OF ITERATIONS:       60
 INTERPOLATION TYPE:            DIIS
 INTERPOLATION STEPS:              2 (START)      1 (STEP)
 LEVEL SHIFTS:                  0.00 (CLOSED)  0.00 (OPEN) 



 Use fine grid record 1800.2 for energy threshold  1.0D-06
 Orbital guess generated from atomic densities. Full valence occupancy:   21

 Molecular orbital dump at record        2100.2

 Initial occupancy:  21

 ITERATION    DDIFF          GRAD             ENERGY        2-EL.EN.            DIPOLE MOMENTS         DIIS   ORB.
    1      0.000D+00      0.000D+00      -640.94085503    962.416498    0.00000   -1.11800    0.00001    0    start
    2      0.000D+00      0.795D-02      -640.82493053    951.824870    0.00023    0.41361    0.00009    1    diag
    3      0.754D-02      0.124D-01      -641.02796873    958.620224    0.00006   -0.59235    0.00001    2    diag
    4      0.466D-02      0.306D-03      -641.02811862    958.228641    0.00009   -0.55803    0.00003    3    diag
    5      0.280D-03      0.100D-03      -641.02813198    958.352251    0.00003   -0.56068    0.00000    4    diag
    6      0.600D-04      0.160D-04      -641.02813245    958.332243    0.00010   -0.56237    0.00003    5    diag
    7      0.236D-04      0.399D-05      -641.02813247    958.336095    0.00003   -0.56211   -0.00000    6    diag
    8      0.269D-05      0.733D-06      -641.02813247    958.336054    0.00010   -0.56207    0.00003    7    diag
    9      0.446D-06      0.507D-06      -641.02813247    958.335985    0.00001   -0.56207   -0.00001    0    orth

 Final occupancy:  21

 !RKS STATE  1.1 Energy              -641.028132467440
 Nuclear energy                       191.53413077
 One-electron energy                -1271.32743387
 Two-electron energy                  479.16799249
 SCF exchange energy                  -52.95840123     Factor= 0.2700
 Density functional                   -40.40282186     XC-M06=-40.40282186
 Virial quotient                       -1.00249873
 !RKS STATE  1.1 Dipole moment          0.00000814    -0.56206797    -0.00001235
 Dipole moment /Debye                   0.00002069    -1.42854072    -0.00003140

 Orbital energies:

         1.1          2.1          3.1          4.1          5.1          6.1          7.1          8.1          9.1         10.1
    -77.387519   -24.808654   -24.808613   -24.808611    -6.790607    -4.911944    -4.911942    -4.904205    -1.318198    -1.264242

        11.1         12.1         13.1         14.1         15.1         16.1         17.1         18.1         19.1         20.1
     -1.264235    -0.696291    -0.581626    -0.581624    -0.548507    -0.509578    -0.509577    -0.465666    -0.465662    -0.452763

        21.1         22.1         23.1
     -0.347836    -0.013778    -0.013773


 HOMO     21.1    -0.347836 =      -9.4651eV
 LUMO     22.1    -0.013778 =      -0.3749eV
 LUMO-HOMO         0.334058 =       9.0902eV


 **********************************************************************************************************************************
 DATASETS  * FILE   NREC   LENGTH (MB)   RECORD NAMES
              1      20      136.06       500      610      700      900      950      970     1000      129      960     1100   
                                          VAR    BASINP    GEOM    SYMINP    ZMAT    AOBASIS   BASIS     P2S    ABASIS      S 
                                         1400     1410     1200     1210     1080     1600     1650     1300     1700     1800   
                                           T        V       H0       H01     AOSYM     SMH    MOLCAS    ERIS     OPER     GRID   

              2       5        3.16       700     1000      520     1800     2100   
                                         GEOM     BASIS   MCVARS    GRID      RKS  

 PROGRAMS   *        TOTAL    KS-SCF       INT
 CPU TIMES  *        22.60      7.13     14.77
 REAL TIME  *        23.41 SEC
 DISK USED  *       508.14 MB
 **********************************************************************************************************************************


 PROGRAM * OPT (Geometry optimization)     Authors: F. Eckert and H.-J. Werner


 BFGS update of hessian

 *** Long output written to logfile /scratch/on41/pk8622/Test_Calcs/Molpro/VPT2/phosphorous_trifluoride_vpt2.log ***


 Geometry optimization using default procedure for command KS-SCF

 Geometry written to block  1 of record 700

 Making model hessian for cartesian coordinates

 Entering Rational Function Geometry Optimization

 ITER.   ENERGY(OLD)    ENERGY(NEW)      DE          GRADMAX     GRADNORM    GRADRMS     STEPMAX     STEPLEN     STEPRMS   CPU-time
   1  -641.02813247  -641.02952936    -0.00139689  0.02514806  0.03331289  0.00555215  0.10370747  0.10473042  0.05236521     82.90
   2  -641.02952936  -641.02689257     0.00263679  0.00975144  0.00975839  0.00162640  0.11641937  0.14194768  0.07097384    165.28
   3  -641.02689257  -641.02178492     0.00510765  0.04791200  0.05242794  0.00873799  0.21835554  0.30000000  0.15000000    249.67
   4  -641.02178492  -641.02705803    -0.00527312  0.09179469  0.09191642  0.01531940  0.21541153  0.30000000  0.15000000    329.75
   5  -641.02705803  -641.02960504    -0.00254700  0.04107457  0.04724856  0.00787476  0.12263537  0.13435813  0.06717907    413.23
 Freezing grid
   6  -641.02960504  -641.02959585     0.00000919  0.00167989  0.00168220  0.00028037  0.00225373  0.00227807  0.00113903    496.85
   7  -641.02959585  -641.02938740     0.00020845  0.00011121  0.00013641  0.00002274  0.03100060  0.03770057  0.01885029    578.66
   8  -641.02938740  -641.02763558     0.00175182  0.01347884  0.01424651  0.00237442  0.11189259  0.14090494  0.07045247    660.15
   9  -641.02763558  -641.02877085    -0.00113527  0.04601526  0.04814005  0.00802334  0.02818818  0.03550293  0.01775146    744.22
  10  -641.02877085  -641.02140359     0.00736727  0.02924665  0.03059419  0.00509903  0.23729346  0.30000000  0.15000000    827.31
  11  -641.02140359  -641.02853696    -0.00713338  0.07812448  0.08072621  0.01345437  0.22226178  0.30000000  0.15000000    906.97
  12  -641.02853696  -641.02957034    -0.00103337  0.03692164  0.03757168  0.00626195  0.05900409  0.08302019  0.04151010    990.47
  13  -641.02957034  -641.02949125     0.00007909  0.00560777  0.00588239  0.00098040  0.03242974  0.04056003  0.02028001   1071.97
  14  -641.02949125  -641.02958580    -0.00009456  0.01049091  0.01099005  0.00183167  0.01227361  0.01524502  0.00762251   1154.74
  15  -641.02958580  -641.02934750     0.00023830  0.00437940  0.00458934  0.00076489  0.04022442  0.05040512  0.02520256   1237.18
  16  -641.02934750  -641.02409001     0.00525749  0.01516337  0.01583822  0.00263970  0.16560395  0.21003526  0.10501763   1319.21
  17  -641.02409001  -641.02908521    -0.00499520  0.07988082  0.08381805  0.01396968  0.09206782  0.11533920  0.05766960   1404.51
  18  -641.02908521  -641.02908518     0.00000003  0.02262481  0.02376007  0.00396001  0.09036723  0.11184363  0.05592182   1487.54
  19  -641.02908518  -641.02960561    -0.00052043  0.02111077  0.02209819  0.00368303  0.04803130  0.06013772  0.03006886   1570.36
  20  -641.02960561  -641.02959537     0.00001024  0.00131592  0.00137359  0.00022893  0.00137375  0.00173920  0.00086960   1654.90
  21  -641.02959537  -641.01704393     0.01255144  0.00059042  0.00062680  0.00010447  0.23556093  0.29677740  0.14838870   1737.66
  22  -641.01704393  -641.02927846    -0.01223453  0.09238798  0.09567219  0.01594536  0.21572473  0.30000000  0.15000000   1816.80
  23  -641.02927846  -641.02959512    -0.00031666  0.02181928  0.02243742  0.00373957  0.03176190  0.03432159  0.01716080   1899.91
  24  -641.02959512  -641.02506708     0.00452804  0.00280580  0.00287035  0.00047839  0.14496176  0.17253698  0.08626849   1982.97
  25  -641.02506708  -641.02959009    -0.00452301  0.06558701  0.07093796  0.01182299  0.13506318  0.15965898  0.07982949   2068.16
  26  -641.02959009  -641.01757527     0.01201483  0.00154018  0.00155236  0.00025873  0.28353018  0.30000000  0.15000000   2151.48
  27  -641.01757527  -641.02735790    -0.00978264  0.07972356  0.10236450  0.01706075  0.16743112  0.17080804  0.08540402   2233.32
  28  -641.02735790  -641.02759175    -0.00023385  0.03842572  0.04641921  0.00773653  0.11378347  0.12136257  0.06068129   2315.46
  29  -641.02759175  -641.02146436     0.00612739  0.04367642  0.04466868  0.00744478  0.22008504  0.30000000  0.15000000   2397.07
  30  -641.02146436  -641.02959612    -0.00813176  0.10416066  0.10772690  0.01795448  0.14587842  0.19560046  0.09780023   2483.70
  31  -641.02959612  -641.02959779    -0.00000166  0.00263128  0.00273346  0.00045558  0.00262519  0.00299973  0.00149986   2567.71
  32  -641.02959779  -641.01111319     0.01848459  0.00063957  0.00071170  0.00011862  0.23616286  0.30000000  0.15000000   2652.86
  33  -641.01111319  -641.02948112    -0.01836793  0.15799815  0.16626829  0.02771138  0.21379900  0.27045336  0.13522668   2741.07
  34  -641.02948112  -641.02959858    -0.00011746  0.00575023  0.00796951  0.00132825  0.02632622  0.02729036  0.01364518   2824.97
  35  -641.02959858  -641.02947015     0.00012843  0.00190800  0.00201920  0.00033653  0.02647030  0.03288040  0.01644020   2908.85
  36  -641.02947015  -641.02930396     0.00016619  0.01069884  0.01119983  0.00186664  0.05465796  0.06898996  0.03449498   2991.79
  37  -641.02930396  -641.02959820    -0.00029424  0.01720685  0.01796609  0.00299435  0.03178208  0.04011257  0.02005629   3075.52
  38  -641.02959820  -641.02960259    -0.00000439  0.00032950  0.00034763  0.00005794  0.00084898  0.00106191  0.00053096   3160.61
  39  -641.02960259  -641.02959642     0.00000616  0.00006431  0.00010188  0.00001698  0.00086924  0.00114686  0.00057343   3245.13
  40  -641.02959642  -641.02950403     0.00009239  0.00051711  0.00055214  0.00009202  0.01960673  0.02471746  0.01235873   3327.74
  41  -641.02950403  -641.02960474    -0.00010071  0.00961523  0.01004890  0.00167482  0.01792110  0.02259291  0.01129645   3411.23
  42  -641.02960474  -641.02959020     0.00001455  0.00032866  0.00034249  0.00005708  0.00462003  0.00592095  0.00296047   3495.22
  43  -641.02959020  -641.01576988     0.01382032  0.00212114  0.00220553  0.00036759  0.21291440  0.26872130  0.13436065   3578.26
  44  -641.01576988  -641.02902663    -0.01325675  0.13312968  0.14017689  0.02336282  0.16231069  0.20303477  0.10151739   3665.01
  45  -641.02902663  -641.02847869     0.00054793  0.02230504  0.02397918  0.00399653  0.12118733  0.14594659  0.07297330   3748.87
  46  -641.02847869  -641.02782356     0.00065513  0.03017308  0.03168916  0.00528153  0.14558462  0.18377584  0.09188792   3830.73
  47  -641.02782356  -641.02959155    -0.00176799  0.04375929  0.04576811  0.00762802  0.08227935  0.10348487  0.05174243   3915.42
  48  -641.02959155  -641.02960623    -0.00001468  0.00208774  0.00214555  0.00035759  0.00457826  0.00602990  0.00301495   3999.53
  49  -641.02960623  -641.01613771     0.01346852  0.00053461  0.00054695  0.00009116  0.23117678  0.30000000  0.15000000   4081.68
  50  -641.01613771  -641.02953111    -0.01339340  0.09800064  0.10070468  0.01678411  0.21320016  0.30000000  0.15000000   4160.98
  51  -641.02953111  -641.02960178    -0.00007067  0.01008278  0.01042436  0.00173739  0.01472773  0.01536018  0.00768009   4243.23
  52  -641.02960178  -641.02960443    -0.00000264  0.00120236  0.00151958  0.00025326  0.00561849  0.00622029  0.00311015   4327.48
  53  -641.02960443  -641.01660988     0.01299455  0.00041454  0.00042129  0.00007021  0.23662333  0.30000000  0.15000000   4410.97
  54  -641.01660988  -641.02948396    -0.01287408  0.09431011  0.09749707  0.01624951  0.19446169  0.27447441  0.13723720   4490.12
  55  -641.02948396  -641.00450082     0.02498314  0.00713415  0.00823804  0.00137301  0.23422833  0.30000000  0.15000000   4574.06
  56  -641.00450082  -641.02656261    -0.02206179  0.21746583  0.21936548  0.03656091  0.29594844  0.30000000  0.15000000   4662.41
  57  -641.02656261  -641.02945997    -0.00289736  0.05162213  0.05718834  0.00953139  0.07799938  0.10806976  0.05403488   4745.21
  58  -641.02945997  -641.02890515     0.00055482  0.00824289  0.00984805  0.00164134  0.10747126  0.11427060  0.05713530   4828.25
  59  -641.02890515  -641.01919386     0.00971129  0.01394572  0.01903866  0.00317311  0.24341551  0.30000000  0.15000000   4911.13
  60  -641.01919386  -641.02718796    -0.00799410  0.11755900  0.12220709  0.02036785  0.22328201  0.30000000  0.15000000   4997.19
  61  -641.02718796  -641.02951911    -0.00233116  0.05550596  0.05551289  0.00925215  0.07113665  0.07792420  0.03896210   5078.48
  62  -641.02951911  -641.02957814    -0.00005903  0.00976688  0.00999780  0.00166630  0.01857561  0.01995784  0.00997892   5161.12
  63  -641.02957814  -641.01328442     0.01629373  0.00335117  0.00389555  0.00064926  0.24122386  0.30000000  0.15000000   5244.24
  64  -641.01328442  -641.02184316    -0.00855874  0.14488825  0.15315145  0.02552524  0.06878552  0.08387461  0.04193731   5331.47
  65  -641.02184316  -641.02955954    -0.00771638  0.09505987  0.10032246  0.01672041  0.15375461  0.18742544  0.09371272   5417.22
  66  -641.02955954  -641.02940029     0.00015924  0.00672007  0.00697920  0.00116320  0.04148130  0.05169908  0.02584954   5499.35
  67  -641.02940029  -641.02959506    -0.00019476  0.01332427  0.01400078  0.00233346  0.03499452  0.04356146  0.02178073   5582.55
  68  -641.02959506  -641.00662933     0.02296572  0.00315515  0.00328744  0.00054791  0.28364901  0.30000000  0.15000000   5666.20
  69  -641.00662933  -641.02920521    -0.02257587  0.15071019  0.15073619  0.02512270  0.26166144  0.30000000  0.15000000   5745.10
  70  -641.02920521  -641.02955174    -0.00034653  0.01393994  0.01775459  0.00295910  0.07090427  0.07342128  0.03671064   5828.35
  71  -641.02955174  -641.02960734    -0.00005560  0.00432667  0.00567880  0.00094647  0.02118508  0.02132809  0.01066404   5910.91
  72  -641.02960734  -641.02959379     0.00001355  0.00045790  0.00048584  0.00008097  0.00402402  0.00429112  0.00214556   5996.81
  73  -641.02959379  -641.01178625     0.01780754  0.00240719  0.00240858  0.00040143  0.23725504  0.30000000  0.15000000   6080.34
  74  -641.01178625  -641.02806445    -0.01627820  0.15358034  0.16196163  0.02699360  0.15992727  0.20016759  0.10008379   6168.68
  75  -641.02806445  -641.02937586    -0.00131141  0.03744931  0.04014056  0.00669009  0.11232139  0.13461079  0.06730539   6253.62
  76  -641.02937586  -641.01601641     0.01335945  0.01421921  0.01487695  0.00247949  0.23802955  0.30000000  0.15000000   6336.05
  77  -641.01601641  -641.02927706    -0.01326066  0.13117586  0.13827663  0.02304611  0.17314645  0.21573267  0.10786633   6422.82
  78  -641.02927706  -641.02958714    -0.00031008  0.01589963  0.01735186  0.00289198  0.03472283  0.03987736  0.01993868   6506.32
  79  -641.02958714  -641.02914086     0.00044629  0.00273023  0.00291132  0.00048522  0.04850523  0.06044871  0.03022436   6588.35
  80  -641.02914086  -641.02935885    -0.00021799  0.02003728  0.02092732  0.00348789  0.07158416  0.09063310  0.04531655   6669.60
  81  -641.02935885  -641.02960335    -0.00024450  0.01581379  0.01650553  0.00275092  0.02758744  0.03488335  0.01744167   6752.91
  82  -641.02960335  -641.02900891     0.00059444  0.00109605  0.00113879  0.00018980  0.04988832  0.06273119  0.03136560   6835.51
  83  -641.02900891  -641.02465370     0.00435521  0.02276133  0.02372642  0.00395440  0.17370893  0.22142970  0.11071485   6917.66
  84  -641.02465370  -641.02955796    -0.00490426  0.07563266  0.07921308  0.01320218  0.11482859  0.14476803  0.07238402   7003.10
  85  -641.02955796  -641.02956278    -0.00000483  0.00584631  0.00632236  0.00105373  0.02560369  0.03073843  0.01536921   7085.51
  86  -641.02956278  -641.02960245    -0.00003966  0.00532103  0.00559307  0.00093218  0.01446917  0.01799435  0.00899717   7168.23
  87  -641.02960245  -641.00848344     0.02111901  0.00163076  0.00169879  0.00028313  0.26913923  0.30000000  0.15000000   7251.21
  88  -641.00848344  -641.02926733    -0.02078390  0.14184540  0.14188165  0.02364694  0.24758526  0.30000000  0.15000000   7330.07
  89  -641.02926733  -641.02938879    -0.00012146  0.01569389  0.01796550  0.00299425  0.01753204  0.01840803  0.00920402   7412.93
  90  -641.02938879  -640.98985368     0.03953512  0.00891062  0.00943259  0.00157210  0.29992681  0.30000000  0.15000000   7497.29
  91  -640.98985368  -641.01364720    -0.02379353  0.29082899  0.29090237  0.04848373  0.13639419  0.18067455  0.09033728   7584.86
  92  -641.01364720  -641.02591898    -0.01227178  0.16039446  0.16437040  0.02739507  0.27745760  0.30000000  0.15000000   7669.63
  93  -641.02591898  -641.02750253    -0.00158355  0.03490017  0.04744837  0.00790806  0.28011729  0.30000000  0.15000000   7755.64
  94  -641.02750253  -641.02325793     0.00424460  0.03781228  0.04058993  0.00676499  0.23707014  0.30000000  0.15000000   7838.04
  95  -641.02325793  -641.02958405    -0.00632612  0.08877712  0.09244453  0.01540742  0.14324386  0.18538094  0.09269047   7924.46
  96  -641.02958405  -641.02959822    -0.00001417  0.00494364  0.00512584  0.00085431  0.00605126  0.00703610  0.00351805   8009.05
  97  -641.02959822  -640.99636823     0.03322999  0.00090834  0.00112260  0.00018710  0.27258346  0.30000000  0.15000000   8092.89
  98  -640.99636823  -641.02886578    -0.03249755  0.26109205  0.26258328  0.04376388  0.23443421  0.24415437  0.12207719   8182.14
  99  -641.02886578  -641.01162142     0.01724436  0.02576427  0.02756548  0.00459425  0.24745968  0.30000000  0.15000000   8267.33
 100  -641.01162142  -640.99617841     0.01544301  0.08933077  0.12482133  0.02080356  0.20091903  0.30000000  0.15000000   8353.56
 ? Warning
 ? No convergence in max. number of iterations

 END OF GEOMETRY OPTIMIZATION.

 Current geometry (xyz format, in Angstrom)

    4
 KS-SCF000/DEF2-TZVP  ENERGY=-640.99617841
 P          0.0840995008       -0.5683062040        0.1485079600
 F          0.3177065119        0.4280182828        1.1912761822
 F          0.9281302477        0.2731848293       -1.0303186886
 F         -1.3829471349        0.2253264888       -0.4030752462

 **********************************************************************************************************************************

 Geometry written to block  1 of record 700


 **********************************************************************************************************************************
 DATASETS  * FILE   NREC   LENGTH (MB)   RECORD NAMES
              1      21      158.95       500      610      700      900      700(1)   950      970     1000      129      960   
                                          VAR    BASINP    GEOM    SYMINP    GEOM     ZMAT    AOBASIS   BASIS     P2S    ABASIS    
                                         1100     1400     1410     1200     1210     1080     1600     1650     1300     1700   
                                           S        T        V       H0       H01     AOSYM     SMH    MOLCAS    ERIS     OPER   
                                         1800   
                                         GRID   

              2       6        3.51       700     1000      520     1800     2100      700(1)
                                         GEOM     BASIS   MCVARS    GRID      RKS     GEOM   

 PROGRAMS   *        TOTAL      OPTG    KS-SCF       INT
 CPU TIMES  *      8376.21   8353.56      7.13     14.77
 REAL TIME  *      8443.42 SEC
 DISK USED  *       583.36 MB
 **********************************************************************************************************************************


 PROGRAM * HESSIAN

 Computing numerical hessian using default procedure for command KS-SCF

 Using AUTO symmetry option

 Running default procedure: KS-SCF000
 

 Recomputing wavefunction at reference geometry

 Numerically approximating hessian using central gradient differences

 Task list generated. Total number of displacements:     24

   19 tasks completed, CPU=6m 48s Elapsed=6m 48s
 Tasks on processor    0 finished.  CPU=    490.52 sec, Elapsed=    490.63 sec. All tasks on all processors finished.

 KS-SCF hessian saved to record  5300.2

 PROGRAM * FREQUENCIES (Calculation of harmonic vibrational spectra for KS-SCF)


 Permanent Dipole Moment [debye]
   1-  3    0.954852   -1.932850    1.646556

 Dipole Moment Norm    2.7127106 [debye]

 Dipole Moment Derivatives [debye/ang]
                   1             2             3             4             5             6             7             8
         1     8.2477050     0.2310800     0.0533021    -1.0137358    -0.8087437    -0.6759586    -2.6630218    -1.6975518
         2    -0.0361229     8.6188705    -0.1087187    -0.2618268    -3.1152325    -1.2084817    -0.6759316    -2.7887548
         3     0.0461701     0.3878468     8.8504377    -0.5472671    -3.0788352    -3.3884377     1.4019992     1.9854767
                   9            10            11            12
         1     1.7433962    -4.5711463     2.2688255    -1.1187152
         2     0.9523889     0.9730343    -2.7144400     0.3649735
         3    -3.4601816    -0.9017519     0.7045713    -2.0024606

 Projecting out rotations and translations

   Low Vibration      Wavenumber
        Nr             [1/cm] 
        1                0.00
        2                0.00
        3                0.00
        4                0.00
        5                0.00
        6                0.00

     Vibration        Wavenumber
        Nr             [1/cm] 
        1              317.23
        2              367.53
        3              447.41
        4              476.20
        5              625.50
        6             1209.05

 FREQUENCIES * CALCULATION OF NORMAL MODES FOR KS-SCF


 Atomic Coordinates

  Nr  Atom  Charge       X              Y              Z

   1   P    15.00    0.158925024   -1.073943080    0.280639372
   2   F     9.00    0.600378296    0.808837331    2.251185723
   3   F     9.00    1.753911976    0.516244509   -1.947020142
   4   F     9.00   -2.613391330    0.425805352   -0.761701823

 Gradient norm at reference geometry: 0.23588D+00

 ?WARNING: GRADIENT NORM NOT ZERO!

 Normal Modes

                              1 A         2 A         3 A         4 A         5 A  
 Wavenumbers [cm-1]          317.23      367.53      447.41      476.20      625.50
 Intensities [km/mol]         13.75        4.70      148.74       43.48      171.56
 Intensities [relative]        8.01        2.74       86.70       25.35      100.00
           PX1             -0.07168    -0.01340    -0.09405    -0.02979     0.02869
           PY1              0.00420    -0.01557     0.01263     0.09204     0.07015
           PZ1              0.01827    -0.04024    -0.01749    -0.01842    -0.08818
           FX2              0.15274    -0.01343    -0.02283     0.02120     0.00361
           FY2              0.00087     0.03209     0.01397    -0.04268     0.00052
           FZ2             -0.02656    -0.09232    -0.02677     0.10892     0.00276
           FX3             -0.00553     0.13090     0.01764     0.08374    -0.07531
           FY3              0.04843     0.00153     0.02767    -0.04357    -0.09030
           FZ3              0.07962     0.05958    -0.01933    -0.08078     0.12332
           FX4             -0.03034    -0.09563     0.15853    -0.05638     0.02492
           FY4             -0.05614    -0.00824    -0.06223    -0.06380    -0.02460
           FZ4             -0.08284     0.09835     0.07462     0.00189     0.01768

                              6 A  
 Wavenumbers [cm-1]         1209.05
 Intensities [km/mol]        168.25
 Intensities [relative]       98.07
           PX1             -0.01632
           PY1             -0.08170
           PZ1             -0.07509
           FX2              0.02762
           FY2              0.12465
           FZ2              0.12551
           FX3              0.00320
           FY3              0.00445
           FZ3             -0.00280
           FX4             -0.00422
           FY4              0.00410
           FZ4             -0.00028


 Normal Modes of low/zero frequencies

                                  1           2           3           4           5
 Wavenumbers [cm-1]            0.00        0.00        0.00        0.00        0.00
 Intensities [km/mol]          0.00        0.00        0.00        0.00        0.00
 Intensities [relative]        0.00        0.00        0.00        0.00        0.00
           PX1             -0.00047    -0.08111     0.00699     0.00907     0.04520
           PY1              0.09513    -0.00141     0.00570     0.01380     0.04639
           PZ1              0.01429     0.09738     0.01488     0.01283     0.02609
           FX2             -0.03176    -0.05308     0.12992    -0.04879     0.06101
           FY2              0.07566     0.05363    -0.03572     0.02806     0.15293
           FZ2              0.03990     0.03851     0.02692     0.01217    -0.07925
           FX3             -0.01712    -0.03950     0.03525     0.13425    -0.00216
           FY3              0.14644    -0.10490    -0.04164    -0.03598    -0.05744
           FZ3              0.03899     0.05330     0.00132     0.06693    -0.08194
           FX4             -0.01883    -0.04674     0.05419     0.07979     0.01704
           FY4              0.06992     0.01951     0.14178     0.04706    -0.03010
           FZ4              0.02685     0.03609     0.08513    -0.12739    -0.00908

                                  6
 Wavenumbers [cm-1]            0.00
 Intensities [km/mol]          0.00
 Intensities [relative]        0.00
           PX1             -0.08597
           PY1              0.01926
           PZ1             -0.07429
           FX2             -0.02392
           FY2             -0.00025
           FZ2             -0.06955
           FX3             -0.03660
           FY3             -0.02600
           FZ3             -0.07124
           FX4             -0.03858
           FY4              0.11117
           FZ4             -0.06808


 Frequencies dumped to record   5400.2

 Zero point energy:  0.00784358 [H]     1721.47 [1/CM]       20.59 [KJ/MOL]

 Recomputing wavefunction at initial geometry


 **********************************************************************************************************************************
 DATASETS  * FILE   NREC   LENGTH (MB)   RECORD NAMES
              1      21      157.48       500      610      700      900      700(1)   950      970     1000      129      960   
                                          VAR    BASINP    GEOM    SYMINP    GEOM     ZMAT    AOBASIS   BASIS     P2S    ABASIS    
                                         1100     1400     1410     1200     1210     1080     1600     1650     1300     1700   
                                           S        T        V       H0       H01     AOSYM     SMH    MOLCAS    ERIS     OPER   
                                         1800   
                                         GRID   

              2      10        3.75       700     1000      520     1800     2100      700(1)   701     5300     5450     5400   
                                         GEOM     BASIS   MCVARS    GRID      RKS     GEOM     GEOM     HESS     NMOD     FREQ   

 PROGRAMS   *        TOTAL      FREQ      OPTG    KS-SCF       INT
 CPU TIMES  *      8883.50    507.24   8353.56      7.13     14.77
 REAL TIME  *      8955.10 SEC
 DISK USED  *       583.36 MB
 **********************************************************************************************************************************

 Density functional group M06=XC-M06
 Functional: XC-M06(via MFM 1.6)                                               Gradient terms: 1
 Use libxcgrid:  F
 Use grid at  1800.2
 

 Exact exchange will be calculated, factor:  0.2700

 Functional: XC-M06                    Factor:  1.0000
 
  107512 words reserved for DFT integration

 PROGRAM * RKS-SCF (Restricted closed shell Kohn-Sham)     Authors: W. Meyer, H.-J. Werner, P.J. Knowles, 1993

 NUMBER OF ELECTRONS:      21+   21-    SPACE SYMMETRY=1    SPIN SYMMETRY: Singlet 
 CONVERGENCE THRESHOLDS:    1.00E-06 (Density)    1.00E-06 (Energy)
 MAX. NUMBER OF ITERATIONS:       60
 INTERPOLATION TYPE:            DIIS
 INTERPOLATION STEPS:              2 (START)      1 (STEP)
 LEVEL SHIFTS:                  0.00 (CLOSED)  0.00 (OPEN) 



 Use fine grid record 1800.2 for energy threshold  1.0D-06
 Orbital guess generated from atomic densities. Full valence occupancy:   21

 Molecular orbital dump at record        2101.2

 Initial occupancy:  21

 ITERATION    DDIFF          GRAD             ENERGY        2-EL.EN.            DIPOLE MOMENTS         DIIS   ORB.
    1      0.000D+00      0.000D+00      -640.88080735    953.743548    0.63771   -1.48780    1.08585    0    start
    2      0.000D+00      0.871D-02      -640.61600482    941.607093   -0.25115    0.76110   -0.24157    1    diag
    3      0.997D-02      0.162D-01      -640.99372949    949.433772    0.45332   -0.77717    0.71741    2    diag
    4      0.640D-02      0.132D-02      -640.99558853    949.400963    0.33665   -0.77685    0.61791    3    diag
    5      0.707D-03      0.674D-03      -640.99616789    949.282981    0.38071   -0.75328    0.64447    4    diag
    6      0.269D-03      0.102D-03      -640.99617796    949.344146    0.37091   -0.75928    0.65028    5    diag
    7      0.569D-04      0.629D-04      -640.99618319    949.347909    0.37602   -0.76101    0.64680    6    diag
    8      0.273D-04      0.139D-04      -640.99618346    949.339070    0.37579   -0.76072    0.64795    7    diag
    9      0.722D-05      0.215D-05      -640.99618347    949.340668    0.37567   -0.76051    0.64782    8    diag
   10      0.171D-05      0.409D-06      -640.99618347    949.340298    0.37565   -0.76050    0.64779    9    orth
   11      0.305D-06      0.520D-07      -640.99618347    949.340337    0.37566   -0.76051    0.64780    0    orth

 Final occupancy:  21

 !RKS STATE  1.1 Energy              -640.996183465458
 Nuclear energy                       186.95328673
 One-electron energy                -1262.25440477
 Two-electron energy                  474.67016847
 SCF exchange energy                  -52.89479551     Factor= 0.2700
 Density functional                   -40.36523389     XC-M06=-40.36523389
 Virial quotient                       -1.00264706
 !RKS STATE  1.1 Dipole moment          0.37565873    -0.76050952     0.64779859
 Dipole moment /Debye                   0.95476672    -1.93289578     1.64643193

 Orbital energies:

         1.1          2.1          3.1          4.1          5.1          6.1          7.1          8.1          9.1         10.1
    -77.405527   -24.856586   -24.786019   -24.761445    -6.807747    -4.929178    -4.928786    -4.921840    -1.363865    -1.238212

        11.1         12.1         13.1         14.1         15.1         16.1         17.1         18.1         19.1         20.1
     -1.196198    -0.708804    -0.589581    -0.581899    -0.566733    -0.495734    -0.474500    -0.454053    -0.424322    -0.414053

        21.1         22.1         23.1
     -0.367339    -0.054027    -0.030204


 HOMO     21.1    -0.367339 =      -9.9958eV
 LUMO     22.1    -0.054027 =      -1.4702eV
 LUMO-HOMO         0.313312 =       8.5256eV


 **********************************************************************************************************************************
 DATASETS  * FILE   NREC   LENGTH (MB)   RECORD NAMES
              1      21      157.48       500      610      700      900      700(1)   950      970     1000      129      960   
                                          VAR    BASINP    GEOM    SYMINP    GEOM     ZMAT    AOBASIS   BASIS     P2S    ABASIS    
                                         1100     1400     1410     1200     1210     1080     1600     1650     1300     1700   
                                           S        T        V       H0       H01     AOSYM     SMH    MOLCAS    ERIS     OPER   
                                         1800   
                                         GRID   

              2      11        6.58       700     1000      520     1800     2100      700(1)   701     5300     5450     5400   
                                         GEOM     BASIS   MCVARS    GRID      RKS     GEOM     GEOM     HESS     NMOD     FREQ   
                                         2101   
                                          RKS  

 PROGRAMS   *        TOTAL    KS-SCF      FREQ      OPTG    KS-SCF       INT
 CPU TIMES  *      8891.41      7.86    507.24   8353.56      7.13     14.77
 REAL TIME  *      8963.26 SEC
 DISK USED  *       583.36 MB
 **********************************************************************************************************************************


 PROGRAM * SURF (Surface generation)   Authors: G. Rauhut 2004, T. Hrenar 2005, M. Neff 2012, D. Oschetzki 2013

 Freezing grid

 Reference geometry in SURF calculation

   1  P    15.00     0.158925024   -0.280639372   -1.073943080
   2  F     9.00     0.600378296   -2.251185723    0.808837331
   3  F     9.00     1.753911976    1.947020142    0.516244509
   4  F     9.00    -2.613391330    0.761701823    0.425805352


 The phase of the following normal coordinates was changed:
  4  6

 Information about detected symmetry elements:

 Detected point group: C1 

 Starting mppx-calculation of energy surfaces:

 Calculating 1D potential

 1D:   6  Points:   6 Conv: 0.00162771 0.00162770
 1D:   5  Points:   6 Conv: 0.00215083 0.00215083
 1D:   4  Points:   6 Conv: 0.00106836 0.00106836
 1D:   3  Points:   6 Conv: 0.00157552 0.00157551
 1D:   2  Points:   6 Conv: 0.00021890 0.00021890
 1D:   1  Points:   6 Conv: 0.00025130 0.00025130

 The determined shift and scalnm parameters are:

 scalnm,mode= 1,sfac=1.000,shift= 0
 scalnm,mode= 2,sfac=1.000,shift= 0
 scalnm,mode= 3,sfac=1.000,shift= 0
 scalnm,mode= 4,sfac=1.000,shift= 0
 scalnm,mode= 5,sfac=1.000,shift= 0
 scalnm,mode= 6,sfac=1.000,shift= 0

 Calculating 2D coupling potential

 2D:   6   5  Points:  16 Conv: 0.00000046 0.00000046
 2D:   6   4  Points:  16 Conv: 0.00000048 0.00000048
 2D:   6   3  Points:  16 Conv: 0.00000024 0.00000022
 2D:   6   2  Points:  16 Conv: 0.00000020 0.00000020
 2D:   6   1  Points:  16 Conv: 0.00000108 0.00000110
 2D:   5   4  Points:  16 Conv: 0.00000055 0.00000056
 2D:   5   3  Points:  16 Conv: 0.00000130 0.00000130
 2D:   5   2  Points:  16 Conv: 0.00000038 0.00000038
 2D:   5   1  Points:  16 Conv: 0.00000034 0.00000035
 2D:   4   3  Points:  16 Conv: 0.00000064 0.00000064
 2D:   4   2  Points:  16 Conv: 0.00000036 0.00000036
 2D:   4   1  Points:  16 Conv: 0.00000040 0.00000040
 2D:   3   2  Points:  16 Conv: 0.00000037 0.00000037
 2D:   3   1  Points:  16 Conv: 0.00000046 0.00000046
 2D:   2   1  Points:  16 Conv: 0.00000043 0.00000043

 Calculating 3D coupling potential

 3D:   6   5   4  Points:    8 Conv: 0.00000056
 3D:   6   5   3  Points:    8 Conv: 0.00000014
 3D:   6   5   2  Points:    8 Conv: 0.00000028
 3D:   6   5   1  Points:    8 Conv: 0.00000038
 3D:   6   4   3  Points:    8 Conv: 0.00000012
 3D:   6   4   2  Points:    8 Conv: 0.00000021
 3D:   6   4   1  Points:    8 Conv: 0.00000027
 3D:   6   3   2  Points:    8 Conv: 0.00000002
 3D:   6   3   1  Points:    8 Conv: 0.00000069
 3D:   6   2   1  Points:    8 Conv: 0.00000004
 3D:   5   4   3  Points:    8 Conv: 0.00000037
 3D:   5   4   2  Points:    8 Conv: 0.00000011
 3D:   5   4   1  Points:    8 Conv: 0.00000014
 3D:   5   3   2  Points:    8 Conv: 0.00000022
 3D:   5   3   1  Points:    8 Conv: 0.00000033
 3D:   5   2   1  Points:    8 Conv: 0.00000008
 3D:   4   3   2  Points:    8 Conv: 0.00000001
 3D:   4   3   1  Points:    8 Conv: 0.00000059
 3D:   4   2   1  Points:    8 Conv: 0.00000018
 3D:   3   2   1  Points:    8 Conv: 0.00000034

 Grid calculation completed

 Formal number of grid points:     85856
 Actual number of grid points:       556 Time (sec):       3122.7
 Number of 1D grid points:           156 Time (sec):        874.0
 Number of 2D grid points:           240 Time (sec):       1355.5
 Number of 3D grid points:           160 Time (sec):        893.2

 CPU-Time for SURF calculation:       3145.0 sec.


 **********************************************************************************************************************************
 DATASETS  * FILE   NREC   LENGTH (MB)   RECORD NAMES
              1      21      159.39       500      610      700      900      700(1)   950      970     1000      129      960   
                                          VAR    BASINP    GEOM    SYMINP    GEOM     ZMAT    AOBASIS   BASIS     P2S    ABASIS    
                                         1100     1400     1410     1200     1210     1080     1600     1650     1300     1700   
                                           S        T        V       H0       H01     AOSYM     SMH    MOLCAS    ERIS     OPER   
                                         1800   
                                         GRID   

              2      14       18.03       700     1000      520     1800     2100      700(1)   701     5300     5450     5400   
                                         GEOM     BASIS   MCVARS    GRID      RKS     GEOM     GEOM     HESS     NMOD     FREQ   
                                         2101     5600     5650     5550   
                                          RKS     SURF    DIPOLE   VIBINFO    

 PROGRAMS   *        TOTAL      SURF       INT    KS-SCF       INT    KS-SCF       INT    KS-SCF       INT    KS-SCF       INT
 CPU TIMES  *     12036.50      9.16     14.40      7.91     14.27      7.84     14.35      7.87     14.28      7.89     14.41
 REAL TIME  *     12203.49 SEC
 DISK USED  *       583.36 MB
 **********************************************************************************************************************************


 PROGRAM * POLY (Transformation of PES grid representation to an analytic representation)   Authors: G. Rauhut 2008, M. Neff 2010, B. Ziegler 2019
 
 Reading potential information from:      5600.2
 Reading dipole information from:         5650.2
 
 Watson correction term has NOT been added to the potential.

 Time to compute the number of basis functions:    0.1 sec
 Number of basis functions:  5

        dim  chi_av       chi_max      time in sec      Surface

 Energy 1D   0.8501E-17   0.3758E-16     0.0            1
        2D   0.6532E-16   0.6556E-15     0.0            6  1
        3D   0.1219E-15   0.4849E-15     0.1            3  2  1

 Dipole 1D   0.1231E-15   0.7038E-15     0.0            2
        2D   0.1009E-14   0.1036E-13     0.0            6  1
        3D   0.1783E-14   0.2316E-13     0.3            6  3  1
 
 Harmonic frequencies obtained from polynomial fit

   Mode        Ref.         Fit

   6 A       1209.05     1210.77
   5 A        625.50      626.22
   4 A        476.20      475.80
   3 A        447.41      448.16
   2 A        367.53      367.79
   1 A        317.23      317.30
 

 CPU-Time for POLY calculation:          0.6 sec.


 **********************************************************************************************************************************
 DATASETS  * FILE   NREC   LENGTH (MB)   RECORD NAMES
              1      21      159.39       500      610      700      900      700(1)   950      970     1000      129      960   
                                          VAR    BASINP    GEOM    SYMINP    GEOM     ZMAT    AOBASIS   BASIS     P2S    ABASIS    
                                         1100     1400     1410     1200     1210     1080     1600     1650     1300     1700   
                                           S        T        V       H0       H01     AOSYM     SMH    MOLCAS    ERIS     OPER   
                                         1800   
                                         GRID   

              2      16       18.20       700     1000      520     1800     2100      700(1)   701     5300     5450     5400   
                                         GEOM     BASIS   MCVARS    GRID      RKS     GEOM     GEOM     HESS     NMOD     FREQ   
                                         2101     5600     5650     5550     5750     5770   
                                          RKS     SURF    DIPOLE   VIBINFO   POLY      MU  

 PROGRAMS   *        TOTAL      POLY    KS-SCF       INT    KS-SCF       INT    KS-SCF       INT    KS-SCF       INT    KS-SCF
 CPU TIMES  *     12037.14      0.59      7.85     14.40      7.91     14.27      7.84     14.35      7.87     14.28      7.89
 REAL TIME  *     12204.30 SEC
 DISK USED  *       583.36 MB
 **********************************************************************************************************************************


 PROGRAM * VPT2 (2nd Order Vibrational Perturbation Theory)   Authors: R. Ramakrishnan, G. Rauhut 2015, B. Schroeder 2017

 Reading potential from record        5600.2

 Asymmetric top molecule


 Non-zero Coriolis zeta constants

   Modes        a             b             c

   6  5     -0.398497      0.029816      0.106349
   6  4     -0.611069     -0.194718     -0.054257
   6  3     -0.017738      0.190186      0.174920
   6  2     -0.216781     -0.019730      0.025056
   6  1     -0.098893      0.534504      0.543083
   5  4      0.475884     -0.292840      0.152165
   5  3      0.050119      0.252086     -0.304658
   5  2      0.281553      0.191390     -0.391233
   5  1      0.141616      0.038493     -0.319383
   4  3      0.079584      0.561011     -0.090393
   4  2      0.281043      0.058318      0.213874
   4  1     -0.185063      0.420525     -0.176521
   3  2     -0.105082      0.165942     -0.643027
   3  1      0.239991      0.210911      0.184682
   2  1      0.047129     -0.088201     -0.589199
 

 VPT2 Vibration-rotation interaction constants (in cm-1)

                       Harmonic                                Coriolis                                Anharmonic
           _________________________________       _________________________________       _________________________________

 Mode           A           B           C               A           B           C               A           B           C

   6       -0.000123   -0.000047   -0.000020       -0.000242   -0.000115   -0.000048        0.000899    0.000172    0.000173
   5       -0.000225   -0.000150   -0.000073       -0.000418   -0.000251   -0.000168        0.001310    0.001111    0.000604
   4       -0.000041   -0.000015   -0.000153        0.000512   -0.000112   -0.000004        0.000349    0.000352    0.000339
   3       -0.000132   -0.000288   -0.000110        0.000004    0.000099    0.000061        0.000786    0.002624    0.001063
   2       -0.000284   -0.000428   -0.000005        0.000109    0.000036    0.000067       -0.000221    0.000797    0.000289
   1       -0.000308   -0.000225   -0.000041        0.000083    0.000400    0.000122        0.000397   -0.000094    0.000295


                          Total
           _________________________________

 Mode           A           B           C

   6        0.000534    0.000011    0.000105
   5        0.000668    0.000710    0.000363
   4        0.000821    0.000224    0.000182
   3        0.000658    0.002436    0.001014
   2       -0.000397    0.000405    0.000351
   1        0.000171    0.000081    0.000376


 VPT2 Quartic centrifugal distortion constants (in cm-1)

                  Tau               Tau'

    AAAA    -0.819695E-06     -0.819695E-06
    BBBB    -0.110783E-05     -0.110783E-05
    CCCC    -0.251370E-06     -0.251370E-06
    BBAA     0.276932E-06     -0.107018E-05
    CCAA    -0.195546E-06     -0.460189E-06
    CCBB    -0.275577E-06     -0.347403E-06


 VPT2 Quartic centrifugal distortion constants in the Nielsen formalism (cm-1)


    DJ       0.149137E-06
    DK      -0.285311E-07
    DJK      0.843175E-07
    R5      -0.113601E-07
    R6      -0.103811E-07
    dJ       0.535286E-07


 VPT2 State-dependent vibrationally averaged rotational constants (in cm-1) 

   Ref.         0.25249     0.23842     0.15943

   |000000>     0.25126     0.23649     0.15823
   |000001>     0.25073     0.23648     0.15813
   |000002>     0.25019     0.23647     0.15802
   |000010>     0.25059     0.23578     0.15787
   |000011>     0.25006     0.23577     0.15777
   |000020>     0.24993     0.23507     0.15751
   |000100>     0.25044     0.23627     0.15805
   |000101>     0.24991     0.23626     0.15795
   |000110>     0.24977     0.23556     0.15769
   |000200>     0.24962     0.23604     0.15787
   |001000>     0.25060     0.23406     0.15722
   |001001>     0.25007     0.23404     0.15712
   |001010>     0.24994     0.23335     0.15686
   |001100>     0.24978     0.23383     0.15704
   |002000>     0.24995     0.23162     0.15621
   |010000>     0.25166     0.23609     0.15788
   |010001>     0.25113     0.23608     0.15778
   |010010>     0.25099     0.23538     0.15752
   |010100>     0.25084     0.23586     0.15770
   |011000>     0.25100     0.23365     0.15687
   |020000>     0.25206     0.23568     0.15753
   |100000>     0.25109     0.23641     0.15786
   |100001>     0.25056     0.23640     0.15775
   |100010>     0.25042     0.23570     0.15750
   |100100>     0.25027     0.23619     0.15768
   |101000>     0.25043     0.23397     0.15685
   |110000>     0.25149     0.23600     0.15751
   |200000>     0.25092     0.23633     0.15748


 VPT2 zero-point vibrational energy (in cm^-1)

 Harmonic:        1723.01562
 Anharmonic:       -13.50341
 Kinetic:           -0.05045
 Total:           1709.46176

 Results of VPT2 calculation (Frequencies in cm-1)


 Fundamentals

       Mode           Harmonic    Anharmonic     Intensity
       6^1 A           1210.77       1197.65        166.46
       5^1 A            626.22        601.54        130.09
       4^1 A            475.80        468.28         31.51
       3^1 A            448.16        446.04        157.81
       2^1 A            367.79        362.02          5.02
       1^1 A            317.30        311.93         17.68


 Overtones

       Mode           Harmonic    Anharmonic     Intensity
       6^2 A           2421.54       2382.00          0.68
       5^2 A           1252.44       1184.37          2.28
       4^2 A            951.60        935.47          0.05
       3^2 A            896.31        897.15          3.32
       2^2 A            735.57        722.96          0.02
       1^2 A            634.59        624.04         41.02


 Combination bands

       Mode           Harmonic    Anharmonic     Intensity
  5^1  6^1 A           1836.99       1801.29          0.03
  4^1  6^1 A           1686.57       1665.00          0.03
  3^1  6^1 A           1658.93       1645.47          0.04
  2^1  6^1 A           1578.56       1559.62          0.02
  1^1  6^1 A           1528.07       1507.81          0.19
  4^1  5^1 A           1102.02       1066.72          0.65
  3^1  5^1 A           1074.38       1047.55          0.78
  2^1  5^1 A            994.01        961.64          0.16
  1^1  5^1 A            943.51        913.48          0.17
  3^1  4^1 A            923.96        908.76          0.58
  2^1  4^1 A            843.59        829.30          0.04
  2^1  3^1 A            815.94        803.15          0.13
  1^1  4^1 A            793.10        778.92          0.10
  1^1  3^1 A            765.45        753.06          0.72
  1^1  2^1 A            685.08        673.30          0.01

 CPU-Time for VPT2 calculation:          0.0 sec.


 **********************************************************************************************************************************
 DATASETS  * FILE   NREC   LENGTH (MB)   RECORD NAMES
              1      21      159.39       500      610      700      900      700(1)   950      970     1000      129      960   
                                          VAR    BASINP    GEOM    SYMINP    GEOM     ZMAT    AOBASIS   BASIS     P2S    ABASIS    
                                         1100     1400     1410     1200     1210     1080     1600     1650     1300     1700   
                                           S        T        V       H0       H01     AOSYM     SMH    MOLCAS    ERIS     OPER   
                                         1800   
                                         GRID   

              2      16       18.20       700     1000      520     1800     2100      700(1)   701     5300     5450     5400   
                                         GEOM     BASIS   MCVARS    GRID      RKS     GEOM     GEOM     HESS     NMOD     FREQ   
                                         2101     5600     5650     5550     5750     5770   
                                          RKS     SURF    DIPOLE   VIBINFO   POLY      MU  

 PROGRAMS   *        TOTAL      VPT2      POLY    KS-SCF       INT    KS-SCF       INT    KS-SCF       INT    KS-SCF       INT
 CPU TIMES  *     12037.20      0.01      0.59      7.85     14.40      7.91     14.27      7.84     14.35      7.87     14.28
 REAL TIME  *     12204.36 SEC
 DISK USED  *       583.36 MB
 **********************************************************************************************************************************

 VPT2/DEF2-TZVP energy=      0.000000000000

            VPT2            POLY          KS-SCF          KS-SCF          KS-SCF          KS-SCF          KS-SCF          KS-SCF
   -640.99885868   -640.99885868   -640.99885868   -640.99296214   -640.99388612   -640.99790754   -640.99722346   -641.00121579
 **********************************************************************************************************************************
 Molpro calculation terminated with 1 warning(s)
