
 Primary working directories    : /jobfs/7633244.gadi-pbs/molpro.JTZJjjdIuE
 Secondary working directories  : /jobfs/7633244.gadi-pbs/molpro.JTZJjjdIuE
 Wavefunction directory         : /home/561/pk8622/wfu/
 Main file repository           : /jobfs/7633244.gadi-pbs/molpro.JTZJjjdIuE/

 id        : anu

 Nodes                            nprocs
 gadi-cpu-clx-1999.gadi.nci.org.au    4

 Using customized tuning parameters: mindgm=1; mindgv=20; mindgc=4; mindgr=1; noblas=0; minvec=7
 default implementation of scratch files=df  


 Variables initialized (934), CPU time= 0.01 sec
 ***,Geom opt + VPT2 for silane
 
 memory,40,m
 basis=def2-TZVP
 
 orient,mass
 geomtyp=xyz
 geometry={
 5
 Si         0.00646        1.04427       -0.00000
 H          1.49146        1.04427        0.00000
 H         -0.48854        0.03020       -0.96533
 H         -0.48854        2.38730       -0.39554
 H         -0.48854        0.71530        1.36087
 }
 mass,iso
 
 ks,M06
 optg
 
 frequencies,symm=auto
 
 label1
 {ks,M06
 start,atden}
 
 surf,start1D=label1,type=qff,sym=auto
 poly,type=qff
 vpt2,combi=1
 Commands  initialized (763), CPU time= 0.01 sec, 617 directives.
 Default parameters read. Elapsed time= 0.11 sec

 Checking input...
 Passed
1


                                         ***  PROGRAM SYSTEM MOLPRO  ***
                                       Copyright, TTI GmbH Stuttgart, 2015
                                    Version 2019.2 linked Nov 21 2019 12:21:21


 **********************************************************************************************************************************
 LABEL *   Geom opt + VPT2 for silane                                                    
  64 bit mppx version                                                                    DATE: 23-Jun-20          TIME: 17:15:19  
 **********************************************************************************************************************************

 SHA1:             8dbd9ae1082e4ce945b0f27595c9eb2d4aa09004
 **********************************************************************************************************************************

 Variable memory set to   40000000 words,  buffer space 

 SETTING BASIS          =    DEF2-TZVP
 SETTING GEOMTYP        =    XYZ
 ZCENTRE=MASS
 


 Using masses of most abundant isotopes

 **********************************************************************************************************************************


 Recomputing integrals since basis changed


 Using spherical harmonics

 Library entry SI     S def2-TZVP            selected for orbital group  1
 Library entry SI     P def2-TZVP            selected for orbital group  1
 Library entry SI     D def2-TZVP            selected for orbital group  1
 Library entry SI     F def2-TZVP            selected for orbital group  1
 Library entry H      S def2-TZVP            selected for orbital group  2
 Library entry H      P def2-TZVP            selected for orbital group  2


 PROGRAM * SEWARD (Integral evaluation for generally contracted gaussian basis sets)     Author: Roland Lindh, 1990

 Geometry written to block  1 of record 700

 Orientation using atomic masses  
 Molecule type: Asymmetric top
 Rotational constants:      85.2730610     85.2729070     85.2732464 GHz

 Point group  C1  



 ATOMIC COORDINATES

 NR  ATOM    CHARGE       X              Y              Z

   1  SI     14.00    0.000000479   -0.000000273    0.000000224
   2  H       1.00   -1.039098898    0.297854035    2.589702277
   3  H       1.00   -2.041537221   -0.829955303   -1.737325251
   4  H       1.00    2.043920507   -1.922645283    0.027610986
   5  H       1.00    1.036702312    2.454754126   -0.879994221

 Bond lengths in Bohr (Angstrom)

 1-2  2.806243295  1-3  2.806243278  1-4  2.806231506  1-5  2.806235926
     ( 1.485000000)     ( 1.484999991)     ( 1.484993762)     ( 1.484996100)

 Bond angles

  2-1-3  109.47122075   2-1-4  109.47130573   2-1-5  109.47127383   3-1-4  109.47130045

  3-1-5  109.47099918   4-1-5  109.47122386

 NUCLEAR CHARGE:                   18
 NUMBER OF PRIMITIVE AOS:         101
 NUMBER OF SYMMETRY AOS:           95
 NUMBER OF CONTRACTIONS:           61   (   61A   )
 NUMBER OF CORE ORBITALS:           5   (    5A   )
 NUMBER OF VALENCE ORBITALS:        8   (    8A   )


 NUCLEAR REPULSION ENERGY   21.26484780


 Eigenvalues of metric

         1 0.101E-01 0.186E-01 0.186E-01 0.186E-01 0.265E-01 0.265E-01 0.265E-01 0.311E-01


 Contracted 2-electron integrals neglected if value below      1.0D-11
 AO integral compression algorithm  1   Integral accuracy      1.0D-11

     8.913 MB (compressed) written to integral file ( 50.0%)


 NUMBER OF SORTED TWO-ELECTRON INTEGRALS:    1788886.     BUFFER LENGTH:  32768
 NUMBER OF SEGMENTS:   1  SEGMENT LENGTH:    1788886      RECORD LENGTH: 524288

 Memory used in sort:       2.35 MW

 SORT1 READ     2168134. AND WROTE     1567516. INTEGRALS IN      5 RECORDS. CPU TIME:     0.05 SEC, REAL TIME:     0.05 SEC
 SORT2 READ     1567516. AND WROTE     1788886. INTEGRALS IN     34 RECORDS. CPU TIME:     0.08 SEC, REAL TIME:     0.09 SEC

 FILE SIZES:   FILE 1:    39.1 MBYTE,  FILE 4:    21.0 MBYTE,   TOTAL:     60.1 MBYTE

 OPERATOR DM      FOR CENTER  0  COORDINATES:    0.000000    0.000000    0.000000


 **********************************************************************************************************************************
 DATASETS  * FILE   NREC   LENGTH (MB)   RECORD NAMES
              1      19       37.21       500      610      700      900      950      970     1000      129      960     1100   
                                          VAR    BASINP    GEOM    SYMINP    ZMAT    AOBASIS   BASIS     P2S    ABASIS      S 
                                         1400     1410     1200     1210     1080     1600     1650     1300     1700   
                                           T        V       H0       H01     AOSYM     SMH    MOLCAS    ERIS     OPER   

 PROGRAMS   *        TOTAL       INT
 CPU TIMES  *         1.65      0.99
 REAL TIME  *         1.93 SEC
 DISK USED  *        60.43 MB
 **********************************************************************************************************************************

 Density functional group M06=XC-M06
 Functional: XC-M06(via MFM 1.6)                                               Gradient terms: 1
 Use libxcgrid:  F
 Use grid at  1800.2
 

 Exact exchange will be calculated, factor:  0.2700

 Functional: XC-M06                    Factor:  1.0000
 
 Generated new metagrid on record  1800.2 with target accuracy 1.0D-06 and 16494 points in CPU time    0.2
 Computed new grid on record 1800.1 in CPU time    0.2
   52431 words reserved for DFT integration

 PROGRAM * RKS-SCF (Restricted closed shell Kohn-Sham)     Authors: W. Meyer, H.-J. Werner, P.J. Knowles, 1993

 NUMBER OF ELECTRONS:       9+    9-    SPACE SYMMETRY=1    SPIN SYMMETRY: Singlet 
 CONVERGENCE THRESHOLDS:    1.00E-06 (Density)    1.00E-06 (Energy)
 MAX. NUMBER OF ITERATIONS:       60
 INTERPOLATION TYPE:            DIIS
 INTERPOLATION STEPS:              2 (START)      1 (STEP)
 LEVEL SHIFTS:                  0.00 (CLOSED)  0.00 (OPEN) 



 Use fine grid record 1800.2 for energy threshold  1.0D-06
 Orbital guess generated from atomic densities. Full valence occupancy:    9

 Molecular orbital dump at record        2100.2

 Initial occupancy:   9

 ITERATION    DDIFF          GRAD             ENERGY        2-EL.EN.            DIPOLE MOMENTS         DIIS   ORB.
    1      0.000D+00      0.000D+00      -291.86977787    299.887365   -0.00002   -0.00002    0.00002    0    start
    2      0.000D+00      0.296D-02      -291.87455224    297.147446    0.00326    0.00422    0.00059    1    diag
    3      0.558D-02      0.200D-02      -291.87639132    298.324775    0.00171    0.00207    0.00003    2    diag
    4      0.183D-02      0.389D-03      -291.87643133    298.207980    0.00223    0.00224    0.00001    3    diag
    5      0.166D-03      0.162D-04      -291.87643151    298.206850    0.00201    0.00228    0.00005    4    diag
    6      0.317D-04      0.242D-05      -291.87643151    298.207543    0.00211    0.00226    0.00003    5    diag
    7      0.291D-05      0.509D-06      -291.87643151    298.207450    0.00208    0.00226    0.00003    6    diag
    8      0.483D-06      0.638D-07      -291.87643151    298.207471    0.00209    0.00226    0.00003    0    orth

 Final occupancy:   9

 !RKS STATE  1.1 Energy              -291.876431511139
 Nuclear energy                        21.26484780
 One-electron energy                 -445.74295237
 Two-electron energy                  149.10373545
 SCF exchange energy                  -21.74507359     Factor= 0.2700
 Density functional                   -16.50206239     XC-M06=-16.50206239
 Virial quotient                       -1.00265436
 !RKS STATE  1.1 Dipole moment          0.00208894     0.00226253     0.00002919
 Dipole moment /Debye                   0.00530921     0.00575040     0.00007419

 Orbital energies:

         1.1          2.1          3.1          4.1          5.1          6.1          7.1          8.1          9.1         10.1
    -66.264645    -5.365906    -3.685138    -3.685120    -3.685059    -0.556795    -0.360752    -0.360516    -0.360453     0.038782

        11.1
      0.038909


 HOMO      9.1    -0.360453 =      -9.8084eV
 LUMO     10.1     0.038782 =       1.0553eV
 LUMO-HOMO         0.399235 =      10.8637eV


 **********************************************************************************************************************************
 DATASETS  * FILE   NREC   LENGTH (MB)   RECORD NAMES
              1      20       37.74       500      610      700      900      950      970     1000      129      960     1100   
                                          VAR    BASINP    GEOM    SYMINP    ZMAT    AOBASIS   BASIS     P2S    ABASIS      S 
                                         1400     1410     1200     1210     1080     1600     1650     1300     1700     1800   
                                           T        V       H0       H01     AOSYM     SMH    MOLCAS    ERIS     OPER     GRID   

              2       5        2.90       700     1000      520     1800     2100   
                                         GEOM     BASIS   MCVARS    GRID      RKS  

 PROGRAMS   *        TOTAL    KS-SCF       INT
 CPU TIMES  *         3.07      1.42      0.99
 REAL TIME  *         3.39 SEC
 DISK USED  *        60.43 MB
 **********************************************************************************************************************************


 PROGRAM * OPT (Geometry optimization)     Authors: F. Eckert and H.-J. Werner


 BFGS update of hessian

 *** Long output written to logfile /scratch/on41/pk8622/Test_Calcs/Molpro/VPT2/silane_vpt2.log ***


 Geometry optimization using default procedure for command KS-SCF

 Geometry written to block  1 of record 700

 Making model hessian for cartesian coordinates

 Entering Rational Function Geometry Optimization

 ITER.   ENERGY(OLD)    ENERGY(NEW)      DE          GRADMAX     GRADNORM    GRADRMS     STEPMAX     STEPLEN     STEPRMS   CPU-time
   1  -291.87643151  -291.87645082    -0.00001931  0.00678789  0.00684117  0.00076013  0.03796454  0.05242258  0.02344409      6.51
   2  -291.87645082  -291.86931975     0.00713107  0.00184067  0.00289523  0.00032169  0.24964516  0.30000000  0.13416408     13.03
   3  -291.86931975  -291.87602233    -0.00670257  0.04604597  0.04963277  0.00551475  0.29244833  0.30000000  0.13416408     19.49
   4  -291.87602233  -291.86927357     0.00674876  0.01174118  0.01669078  0.00185453  0.27451898  0.30000000  0.13416408     26.00
   5  -291.86927357  -291.85809767     0.01117589  0.04535471  0.05129508  0.00569945  0.21932393  0.30000000  0.13416408     32.62
   6  -291.85809767  -291.87097156    -0.01287389  0.12255758  0.13879177  0.01542131  0.28271737  0.30000000  0.13416408     39.13
   7  -291.87097156  -291.87451990    -0.00354834  0.03807759  0.05482012  0.00609112  0.27548852  0.30000000  0.13416408     45.61
   8  -291.87451990  -291.87002883     0.00449107  0.01863407  0.03169890  0.00352210  0.22639908  0.30000000  0.13416408     52.17
   9  -291.87002883  -291.87281540    -0.00278657  0.04070528  0.06190736  0.00687860  0.25902466  0.30000000  0.13416408     58.83
  10  -291.87281540  -291.86753572     0.00527967  0.04335015  0.05816575  0.00646286  0.18578065  0.30000000  0.13416408     65.43
  11  -291.86753572  -291.86765886    -0.00012314  0.08645894  0.09624429  0.01069381  0.17634942  0.30000000  0.13416408     72.03
  12  -291.86765886  -291.87380981    -0.00615095  0.05942591  0.07046913  0.00782990  0.15882029  0.30000000  0.13416408     78.62
  13  -291.87380981  -291.87513584    -0.00132603  0.01462754  0.03000779  0.00333420  0.17846345  0.30000000  0.13416408     85.08
  14  -291.87513584  -291.87222802     0.00290782  0.01583164  0.02415920  0.00268436  0.23163548  0.30000000  0.13416408     91.62
  15  -291.87222802  -291.86701708     0.00521094  0.03202522  0.04371029  0.00485670  0.19607792  0.30000000  0.13416408     98.15
  16  -291.86701708  -291.87335703    -0.00633995  0.04737646  0.06700849  0.00744539  0.25353239  0.30000000  0.13416408    104.67
  17  -291.87335703  -291.87241888     0.00093815  0.03470722  0.04421110  0.00491234  0.17433359  0.30000000  0.13416408    111.33
  18  -291.87241888  -291.87390487    -0.00148600  0.03095562  0.04505259  0.00500584  0.23521497  0.30000000  0.13416408    117.81
  19  -291.87390487  -291.87384551     0.00005937  0.02989916  0.04184578  0.00464953  0.22147046  0.30000000  0.13416408    124.34
  20  -291.87384551  -291.87339417     0.00045134  0.02755075  0.03534471  0.00392719  0.19220436  0.30000000  0.13416408    130.92
  21  -291.87339417  -291.87100674     0.00238743  0.03097403  0.03822919  0.00424769  0.23114594  0.30000000  0.13416408    137.51
  22  -291.87100674  -291.87340696    -0.00240022  0.03449156  0.05204317  0.00578257  0.26060506  0.30000000  0.13416408    144.03
  23  -291.87340696  -291.86380576     0.00960120  0.03759238  0.04610699  0.00512300  0.18239767  0.30000000  0.13416408    150.67
  24  -291.86380576  -291.86562037    -0.00181461  0.07624660  0.10610342  0.01178927  0.23296885  0.30000000  0.13416408    157.37
  25  -291.86562037  -291.86737254    -0.00175217  0.07836441  0.09690295  0.01076699  0.17984723  0.30000000  0.13416408    163.88
  26  -291.86737254  -291.87349493    -0.00612239  0.04741411  0.05400981  0.00600109  0.23935668  0.30000000  0.13416408    170.40
  27  -291.87349493  -291.86787267     0.00562226  0.03019442  0.04079383  0.00453265  0.23324747  0.30000000  0.13416408    176.94
  28  -291.86787267  -291.86937954    -0.00150687  0.04588168  0.06680149  0.00742239  0.22461060  0.30000000  0.13416408    183.58
  29  -291.86937954  -291.87321454    -0.00383500  0.04282471  0.05284699  0.00587189  0.26821475  0.30000000  0.13416408    190.19
  30  -291.87321454  -291.86633330     0.00688125  0.04899618  0.05242264  0.00582474  0.21616792  0.30000000  0.13416408    196.87
  31  -291.86633330  -291.86573864     0.00059465  0.06389436  0.08790101  0.00976678  0.24419572  0.30000000  0.13416408    203.48
  32  -291.86573864  -291.86704617    -0.00130753  0.07302176  0.08709930  0.00967770  0.18379708  0.30000000  0.13416408    210.11
  33  -291.86704617  -291.87085011    -0.00380394  0.07051120  0.07903192  0.00878132  0.15568883  0.21083728  0.09428930    216.74
  34  -291.87085011  -291.86662711     0.00422300  0.04127370  0.05741711  0.00637968  0.23690829  0.30000000  0.13416408    223.43
  35  -291.86662711  -291.85838177     0.00824534  0.05908142  0.08065831  0.00896203  0.15761969  0.30000000  0.13416408    230.06
  36  -291.85838177  -291.86919577    -0.01081400  0.09764585  0.11588298  0.01287589  0.19477622  0.30000000  0.13416408    236.64
  37  -291.86919577  -291.86595106     0.00324471  0.04352355  0.05643007  0.00627001  0.18589640  0.30000000  0.13416408    243.24
  38  -291.86595106  -291.86238796     0.00356310  0.05473018  0.07737529  0.00859725  0.14036480  0.30000000  0.13416408    249.92
  39  -291.86238796  -291.87220464    -0.00981668  0.08659765  0.10051275  0.01116808  0.23792113  0.30000000  0.13416408    256.49
  40  -291.87220464  -291.87287302    -0.00066838  0.02729657  0.04213993  0.00468221  0.17494403  0.30000000  0.13416408    263.02
  41  -291.87287302  -291.87542610    -0.00255308  0.03233536  0.04688188  0.00520910  0.23377299  0.30000000  0.13416408    269.55
  42  -291.87542610  -291.86390643     0.01151968  0.01014807  0.01784020  0.00198224  0.16901620  0.30000000  0.13416408    276.13
  43  -291.86390643  -291.84449486     0.01941157  0.05807839  0.08903504  0.00989278  0.17404353  0.30000000  0.13416408    282.72
  44  -291.84449486  -291.86919469    -0.02469983  0.13542338  0.16018049  0.01779783  0.17280503  0.30000000  0.13416408    289.48
  45  -291.86919469  -291.87318356    -0.00398887  0.05592049  0.07380419  0.00820047  0.15544988  0.30000000  0.13416408    296.00
  46  -291.87318356  -291.87208532     0.00109824  0.03465661  0.03979274  0.00442142  0.20057226  0.30000000  0.13416408    302.58
  47  -291.87208532  -291.87534080    -0.00325548  0.03055035  0.04430610  0.00492290  0.23746701  0.30000000  0.13416408    309.05
  48  -291.87534080  -291.87029778     0.00504302  0.01484797  0.02312186  0.00256910  0.14971630  0.30000000  0.13416408    315.62
  49  -291.87029778  -291.86836184     0.00193594  0.05410217  0.06728879  0.00747653  0.22044721  0.30000000  0.13416408    322.28
  50  -291.86836184  -291.87508861    -0.00672677  0.06931055  0.08002573  0.00889175  0.16530605  0.30000000  0.13416408    328.83
  51  -291.87508861  -291.87275951     0.00232911  0.02617481  0.03437827  0.00381981  0.19478755  0.30000000  0.13416408    335.37
  52  -291.87275951  -291.87302793    -0.00026843  0.03568273  0.04767946  0.00529772  0.17165181  0.30000000  0.13416408    342.08
  53  -291.87302793  -291.87081340     0.00221453  0.03944556  0.04338083  0.00482009  0.19735138  0.30000000  0.13416408    348.64
  54  -291.87081340  -291.86889075     0.00192265  0.03231017  0.04417541  0.00490838  0.18637379  0.30000000  0.13416408    355.21
  55  -291.86889075  -291.86312709     0.00576366  0.05884320  0.06973489  0.00774832  0.18076970  0.30000000  0.13416408    361.81
  56  -291.86312709  -291.86516873    -0.00204164  0.05398045  0.08529323  0.00947703  0.18890141  0.30000000  0.13416408    368.38
  57  -291.86516873  -291.87036606    -0.00519734  0.10054972  0.10525095  0.01169455  0.15636942  0.30000000  0.13416408    374.94
  58  -291.87036606  -291.87134645    -0.00098039  0.05059946  0.06090774  0.00676753  0.18150832  0.30000000  0.13416408    381.49
  59  -291.87134645  -291.87406940    -0.00272294  0.02366985  0.04366221  0.00485136  0.19612858  0.30000000  0.13416408    388.12
  60  -291.87406940  -291.86893881     0.00513058  0.03285725  0.04292831  0.00476981  0.16774839  0.30000000  0.13416408    394.69
  61  -291.86893881  -291.86856276     0.00037605  0.06409267  0.07230482  0.00803387  0.24589188  0.30000000  0.13416408    401.12
  62  -291.86856276  -291.87422341    -0.00566065  0.05590933  0.07629835  0.00847759  0.24263339  0.30000000  0.13416408    407.68
  63  -291.87422341  -291.87406040     0.00016302  0.01858909  0.03022277  0.00335809  0.15811683  0.30000000  0.13416408    414.18
  64  -291.87406040  -291.86847240     0.00558800  0.02537024  0.03374019  0.00374891  0.17581675  0.30000000  0.13416408    420.74
  65  -291.86847240  -291.87126323    -0.00279083  0.04680795  0.06722638  0.00746960  0.16998495  0.30000000  0.13416408    427.48
  66  -291.87126323  -291.87251575    -0.00125252  0.04116954  0.06266749  0.00696305  0.17413924  0.30000000  0.13416408    433.98
  67  -291.87251575  -291.87010992     0.00240583  0.04884519  0.05973086  0.00663676  0.21691161  0.30000000  0.13416408    440.59
  68  -291.87010992  -291.87528035    -0.00517043  0.03763738  0.05885648  0.00653961  0.22253812  0.30000000  0.13416408    447.21
  69  -291.87528035  -291.86820210     0.00707825  0.01871091  0.02904409  0.00322712  0.18127682  0.30000000  0.13416408    453.73
  70  -291.86820210  -291.87343613    -0.00523403  0.04688781  0.07536596  0.00837400  0.13387157  0.30000000  0.13416408    460.26
  71  -291.87343613  -291.87267553     0.00076060  0.02712616  0.04065154  0.00451684  0.27894985  0.30000000  0.13416408    466.72
  72  -291.87267553  -291.87337955    -0.00070402  0.03910007  0.04385001  0.00487222  0.28054899  0.30000000  0.13416408    473.30
  73  -291.87337955  -291.87241178     0.00096777  0.02855093  0.04202293  0.00466921  0.15752082  0.30000000  0.13416408    479.91
  74  -291.87241178  -291.87156421     0.00084757  0.03395775  0.04633470  0.00514830  0.17816864  0.30000000  0.13416408    486.43
  75  -291.87156421  -291.87040753     0.00115669  0.03815922  0.05036082  0.00559565  0.20048274  0.30000000  0.13416408    493.05
  76  -291.87040753  -291.87345825    -0.00305072  0.05899133  0.06991545  0.00776838  0.21713506  0.30000000  0.13416408    499.53
  77  -291.87345825  -291.86464893     0.00880932  0.02444956  0.04043118  0.00449235  0.19008054  0.30000000  0.13416408    506.17
  78  -291.86464893  -291.87006909    -0.00542015  0.11346878  0.11755026  0.01306114  0.23437086  0.30000000  0.13416408    512.89
  79  -291.87006909  -291.87132902    -0.00125994  0.05626345  0.07432636  0.00825848  0.18920005  0.30000000  0.13416408    519.43
  80  -291.87132902  -291.86976523     0.00156380  0.04260691  0.05895927  0.00655103  0.19787453  0.30000000  0.13416408    525.99
  81  -291.86976523  -291.87216806    -0.00240284  0.03045430  0.04930375  0.00547819  0.20198976  0.30000000  0.13416408    532.62
  82  -291.87216806  -291.86696779     0.00520027  0.05188114  0.05513939  0.00612660  0.28326392  0.30000000  0.13416408    539.22
  83  -291.86696779  -291.86983218    -0.00286438  0.04405348  0.07619078  0.00846564  0.14781732  0.30000000  0.13416408    545.71
  84  -291.86983218  -291.87440197    -0.00456979  0.04245576  0.05507429  0.00611937  0.22252299  0.30000000  0.13416408    552.24
  85  -291.87440197  -291.86839428     0.00600769  0.02048022  0.02577381  0.00286376  0.23441182  0.30000000  0.13416408    558.87
  86  -291.86839428  -291.87527592    -0.00688165  0.04408423  0.04856684  0.00539632  0.26966696  0.30000000  0.13416408    565.36
  87  -291.87527592  -291.86711493     0.00816099  0.01171434  0.01983492  0.00220388  0.26808142  0.30000000  0.13416408    571.91
  88  -291.86711493  -291.87430162    -0.00718668  0.04825735  0.05880550  0.00653394  0.19070132  0.30000000  0.13416408    578.37
  89  -291.87430162  -291.87185174     0.00244988  0.02220092  0.03448031  0.00383115  0.22283785  0.30000000  0.13416408    584.90
  90  -291.87185174  -291.87308076    -0.00122902  0.04344877  0.05332836  0.00592537  0.18453887  0.30000000  0.13416408    591.45
  91  -291.87308076  -291.87281938     0.00026138  0.04046108  0.05174957  0.00574995  0.25558602  0.30000000  0.13416408    597.99
  92  -291.87281938  -291.86715867     0.00566071  0.02857121  0.03993514  0.00443724  0.20430704  0.30000000  0.13416408    604.66
  93  -291.86715867  -291.87303012    -0.00587145  0.04825721  0.07463323  0.00829258  0.24138412  0.30000000  0.13416408    611.39
  94  -291.87303012  -291.85651139     0.01651873  0.03482855  0.04710965  0.00523441  0.20001575  0.30000000  0.13416408    618.06
  95  -291.85651139  -291.86962107    -0.01310968  0.13894663  0.15756406  0.01750712  0.17108712  0.30000000  0.13416408    624.68
  96  -291.86962107  -291.86547364     0.00414744  0.05922643  0.06791660  0.00754629  0.19034234  0.30000000  0.13416408    631.31
  97  -291.86547364  -291.86499597     0.00047766  0.09619607  0.10874432  0.01208270  0.20355027  0.30000000  0.13416408    637.90
  98  -291.86499597  -291.87189786    -0.00690189  0.06502969  0.07864659  0.00873851  0.21108200  0.30000000  0.13416408    644.40
  99  -291.87189786  -291.87103462     0.00086324  0.04297739  0.04921725  0.00546858  0.14388160  0.30000000  0.13416408    650.92
 100  -291.87103462  -291.87222108    -0.00118646  0.04694426  0.05842749  0.00649194  0.16892793  0.30000000  0.13416408    657.57
 ? Warning
 ? No convergence in max. number of iterations

 END OF GEOMETRY OPTIMIZATION.

 Current geometry (xyz format, in Angstrom)

    5
 KS-SCF000/DEF2-TZVP  ENERGY=-291.87222108
 Si        -0.0015607460       -0.0024784670       -0.0038470234
 H          0.0459489527       -0.5382566052       -1.3267368698
 H          0.1799921343        1.3959453817       -0.0718092760
 H          1.1527122650       -0.5144841728        0.8375430286
 H         -1.3353274939       -0.2744030769        0.6677953735

 **********************************************************************************************************************************

 Geometry written to block  1 of record 700


 **********************************************************************************************************************************
 DATASETS  * FILE   NREC   LENGTH (MB)   RECORD NAMES
              1      21       37.76       500      610      700      900      700(1)   950      970     1000      129      960   
                                          VAR    BASINP    GEOM    SYMINP    GEOM     ZMAT    AOBASIS   BASIS     P2S    ABASIS    
                                         1100     1400     1410     1200     1210     1080     1600     1650     1300     1700   
                                           S        T        V       H0       H01     AOSYM     SMH    MOLCAS    ERIS     OPER   
                                         1800   
                                         GRID   

              2       6        2.98       700     1000      520     1800     2100      700(1)
                                         GEOM     BASIS   MCVARS    GRID      RKS     GEOM   

 PROGRAMS   *        TOTAL      OPTG    KS-SCF       INT
 CPU TIMES  *       660.69    657.57      1.42      0.99
 REAL TIME  *       680.10 SEC
 DISK USED  *        63.11 MB
 **********************************************************************************************************************************


 PROGRAM * HESSIAN

 Computing numerical hessian using default procedure for command KS-SCF

 Using AUTO symmetry option

 Running default procedure: KS-SCF000
 

 Recomputing wavefunction at reference geometry

 Numerically approximating hessian using central gradient differences

 Task list generated. Total number of displacements:     30

   19 tasks completed, CPU=31s Elapsed=31s
 Tasks on processor    0 finished.  CPU=     49.56 sec, Elapsed=     50.29 sec. All tasks on all processors finished.

 KS-SCF hessian saved to record  5300.2

 PROGRAM * FREQUENCIES (Calculation of harmonic vibrational spectra for KS-SCF)


 Permanent Dipole Moment [debye]
   1-  3   -0.048902   -0.056504   -0.162852

 Dipole Moment Norm    0.1791785 [debye]

 Dipole Moment Derivatives [debye/ang]
                   1             2             3             4             5             6             7             8
         1     4.8155020    -0.0796990     0.0273665    -1.0916177     0.0043072    -0.0109911    -1.1014823    -0.0158714
         2    -0.0763926     4.5051111    -0.1038213     0.0124423    -1.0507560    -0.1388110    -0.0237710    -1.3774367
         3     0.0063440    -0.1075416     4.6172873     0.0105745    -0.0511343    -1.3004720     0.0106863     0.0477596
                   9            10            11            12            13            14            15
         1     0.0120933    -1.2787462     0.0919811    -0.1565274    -1.3442041    -0.0009965     0.1280351
         2     0.0506765     0.1679992    -1.0639003     0.1209850    -0.0801243    -1.0131617     0.0709047
         3    -1.0711330    -0.1591266     0.0702619    -1.1486509     0.1314858     0.0399885    -1.0972728

 Projecting out rotations and translations

   Low Vibration      Wavenumber
        Nr             [1/cm] 
        1                0.00
        2                0.00
        3                0.00
        4                0.00
        5                0.00
        6                0.00

     Vibration        Wavenumber
        Nr             [1/cm] 
        1              868.59
        2              900.76
        3              950.41
        4              965.87
        5              994.57
        6             2076.75
        7             2086.04
        8             2537.10
        9             2634.26

 FREQUENCIES * CALCULATION OF NORMAL MODES FOR KS-SCF


 Atomic Coordinates

  Nr  Atom  Charge       X              Y              Z

   1   SI   14.00   -0.002949383   -0.004683624   -0.007269821
   2   H     1.00    0.086830936   -1.017157569   -2.507169323
   3   H     1.00    0.340135838    2.637954456   -0.135699865
   4   H     1.00    2.178310481   -0.972234182    1.582726942
   5   H     1.00   -2.523403250   -0.518546663    1.261950363

 Gradient norm at reference geometry: 0.11043D+00

 ?WARNING: GRADIENT NORM NOT ZERO!

 Normal Modes

                              1 A         2 A         3 A         4 A         5 A  
 Wavenumbers [cm-1]          868.59      900.76      950.41      965.87      994.57
 Intensities [km/mol]        155.05      115.79      107.93        6.65       37.89
 Intensities [relative]      100.00       74.68       69.61        4.29       24.44
           SIX1            -0.04752    -0.02523    -0.00517    -0.00640     0.00526
           SIY1             0.02105    -0.02844    -0.04068    -0.00960    -0.00171
           SIZ1            -0.01715     0.03061    -0.02926     0.00506    -0.02879
           HX2              0.50548     0.25019    -0.03833     0.53517     0.12336
           HY2             -0.28676     0.59131     0.11902    -0.03676     0.23697
           HZ2              0.13283    -0.22231    -0.08147     0.03644    -0.11684
           HX3              0.53456     0.29858     0.08548    -0.44694    -0.15732
           HY3             -0.04504    -0.08473    -0.01200     0.04864     0.01424
           HZ3              0.20744    -0.51665     0.52616     0.03530    -0.11294
           HX4              0.09157     0.18592     0.11580     0.13927    -0.42162
           HY4              0.02565     0.22605     0.58120    -0.25595    -0.17679
           HZ4             -0.14660    -0.10506     0.21208    -0.35578     0.44182
           HX5              0.18746    -0.03426    -0.01954    -0.04993     0.30953
           HY5             -0.27819     0.05699     0.44104     0.51068    -0.02687
           HZ5              0.28253    -0.00584     0.15539     0.14353     0.58727

                              6 A         7 A         8 A         9 A  
 Wavenumbers [cm-1]         2076.75     2086.04     2537.10     2634.26
 Intensities [km/mol]         84.77      105.34       85.43       92.71
 Intensities [relative]       54.67       67.94       55.09       59.79
           SIX1            -0.02628    -0.02824     0.00134    -0.00435
           SIY1            -0.00789     0.01128    -0.01214    -0.03405
           SIZ1             0.01640    -0.01658    -0.03184     0.00080
           HX2             -0.01074    -0.01245    -0.03280    -0.00210
           HY2             -0.00013     0.00373     0.37286    -0.00238
           HZ2              0.01543    -0.01343     0.90489     0.01923
           HX3             -0.01909    -0.02433    -0.00294     0.12138
           HY3             -0.00169    -0.00107    -0.02830     0.97042
           HZ3              0.01296    -0.01391    -0.01142    -0.04807
           HX4             -0.09645     0.73307     0.00199     0.00528
           HY4              0.03644    -0.34070    -0.00380    -0.01494
           HZ4             -0.05593     0.54142    -0.00434     0.00525
           HX5              0.85570     0.08757    -0.00337    -0.00390
           HY5              0.18443     0.02491    -0.00387    -0.00779
           HZ5             -0.42777    -0.05396    -0.00532     0.00142


 Normal Modes of low/zero frequencies

                                  1           2           3           4           5
 Wavenumbers [cm-1]            0.00        0.00        0.00        0.00        0.00
 Intensities [km/mol]          0.00        0.00        0.00        0.00        0.00
 Intensities [relative]        0.00        0.00        0.00        0.00        0.00
           SIX1             0.17652     0.00569    -0.00277    -0.00320    -0.00580
           SIY1            -0.00235     0.01496    -0.01199     0.02564    -0.02100
           SIZ1             0.00572     0.03206     0.03288     0.11491     0.12607
           HX2              0.19385    -0.15852     0.16545    -0.38561     0.33930
           HY2              0.01315    -0.45763    -0.27796     0.16088     0.04014
           HZ2              0.00006     0.21756     0.14664     0.04640     0.11370
           HX3              0.15805     0.30923    -0.49384    -0.01229     0.05322
           HY3              0.00088    -0.04850     0.03711     0.03126    -0.02305
           HZ3              0.02281    -0.46297    -0.26855     0.20631     0.24164
           HX4              0.17708    -0.07644     0.18908     0.23371    -0.24998
           HY4              0.00387     0.05639     0.57227    -0.06915    -0.09419
           HZ4              0.00874     0.16994     0.12522    -0.26778     0.41652
           HX5              0.17511    -0.02995     0.10244     0.18693    -0.19676
           HY5             -0.02800     0.54143    -0.33591    -0.03334    -0.01412
           HZ5             -0.00747     0.17444     0.11067     0.46860    -0.25036

                                  6
 Wavenumbers [cm-1]            0.00
 Intensities [km/mol]          0.00
 Intensities [relative]        0.00
           SIX1             0.00149
           SIY1             0.17255
           SIZ1            -0.00215
           HX2              0.12564
           HY2              0.18786
           HZ2             -0.00389
           HX3             -0.04849
           HY3              0.18041
           HZ3              0.02618
           HX4             -0.04378
           HY4              0.20962
           HZ4              0.08250
           HX5             -0.04005
           HY5              0.11302
           HZ5             -0.10874


 Frequencies dumped to record   5400.2

 Zero point energy:  0.03192705 [H]     7007.18 [1/CM]       83.82 [KJ/MOL]

 Recomputing wavefunction at initial geometry


 **********************************************************************************************************************************
 DATASETS  * FILE   NREC   LENGTH (MB)   RECORD NAMES
              1      21       37.76       500      610      700      900      700(1)   950      970     1000      129      960   
                                          VAR    BASINP    GEOM    SYMINP    GEOM     ZMAT    AOBASIS   BASIS     P2S    ABASIS    
                                         1100     1400     1410     1200     1210     1080     1600     1650     1300     1700   
                                           S        T        V       H0       H01     AOSYM     SMH    MOLCAS    ERIS     OPER   
                                         1800   
                                         GRID   

              2      10        3.24       700     1000      520     1800     2100      700(1)   701     5300     5450     5400   
                                         GEOM     BASIS   MCVARS    GRID      RKS     GEOM     GEOM     HESS     NMOD     FREQ   

 PROGRAMS   *        TOTAL      FREQ      OPTG    KS-SCF       INT
 CPU TIMES  *       711.93     51.19    657.57      1.42      0.99
 REAL TIME  *       732.83 SEC
 DISK USED  *        63.63 MB
 **********************************************************************************************************************************

 Density functional group M06=XC-M06
 Functional: XC-M06(via MFM 1.6)                                               Gradient terms: 1
 Use libxcgrid:  F
 Use grid at  1800.2
 

 Exact exchange will be calculated, factor:  0.2700

 Functional: XC-M06                    Factor:  1.0000
 
   52431 words reserved for DFT integration

 PROGRAM * RKS-SCF (Restricted closed shell Kohn-Sham)     Authors: W. Meyer, H.-J. Werner, P.J. Knowles, 1993

 NUMBER OF ELECTRONS:       9+    9-    SPACE SYMMETRY=1    SPIN SYMMETRY: Singlet 
 CONVERGENCE THRESHOLDS:    1.00E-06 (Density)    1.00E-06 (Energy)
 MAX. NUMBER OF ITERATIONS:       60
 INTERPOLATION TYPE:            DIIS
 INTERPOLATION STEPS:              2 (START)      1 (STEP)
 LEVEL SHIFTS:                  0.00 (CLOSED)  0.00 (OPEN) 



 Use fine grid record 1800.2 for energy threshold  1.0D-06
 Orbital guess generated from atomic densities. Full valence occupancy:    9

 Molecular orbital dump at record        2101.2

 Initial occupancy:   9

 ITERATION    DDIFF          GRAD             ENERGY        2-EL.EN.            DIPOLE MOMENTS         DIIS   ORB.
    1      0.000D+00      0.000D+00      -291.86479918    300.537443   -0.04510   -0.09142   -0.02774    0    start
    2      0.000D+00      0.316D-02      -291.87007328    297.665383   -0.00447    0.01797   -0.09223    1    diag
    3      0.579D-02      0.213D-02      -291.87218001    298.892523   -0.01883   -0.02140   -0.06004    2    diag
    4      0.191D-02      0.392D-03      -291.87222060    298.774380   -0.02012   -0.02437   -0.06391    3    diag
    5      0.175D-03      0.258D-04      -291.87222096    298.776634   -0.01880   -0.02121   -0.06414    4    diag
    6      0.346D-04      0.837D-05      -291.87222101    298.775918   -0.01928   -0.02229   -0.06407    5    diag
    7      0.572D-05      0.662D-06      -291.87222101    298.776047   -0.01923   -0.02223   -0.06408    6    diag
    8      0.100D-05      0.165D-06      -291.87222101    298.776034   -0.01924   -0.02223   -0.06407    7    diag
    9      0.116D-06      0.172D-07      -291.87222101    298.776039   -0.01924   -0.02223   -0.06408    0    orth

 Final occupancy:   9

 !RKS STATE  1.1 Energy              -291.872221007627
 Nuclear energy                        21.52362807
 One-electron energy                 -446.26913631
 Two-electron energy                  149.38801932
 SCF exchange energy                  -21.76253692     Factor= 0.2700
 Density functional                   -16.51473209     XC-M06=-16.51473209
 Virial quotient                       -1.00237072
 !RKS STATE  1.1 Dipole moment         -0.01924008    -0.02223183    -0.06407501
 Dipole moment /Debye                  -0.04890021    -0.05650398    -0.16285176

 Orbital energies:

         1.1          2.1          3.1          4.1          5.1          6.1          7.1          8.1          9.1         10.1
    -66.259285    -5.362250    -3.681497    -3.681393    -3.681156    -0.560398    -0.370028    -0.359954    -0.355420     0.033561

        11.1
      0.038838


 HOMO      9.1    -0.355420 =      -9.6715eV
 LUMO     10.1     0.033561 =       0.9133eV
 LUMO-HOMO         0.388981 =      10.5847eV


 **********************************************************************************************************************************
 DATASETS  * FILE   NREC   LENGTH (MB)   RECORD NAMES
              1      21       37.76       500      610      700      900      700(1)   950      970     1000      129      960   
                                          VAR    BASINP    GEOM    SYMINP    GEOM     ZMAT    AOBASIS   BASIS     P2S    ABASIS    
                                         1100     1400     1410     1200     1210     1080     1600     1650     1300     1700   
                                           S        T        V       H0       H01     AOSYM     SMH    MOLCAS    ERIS     OPER   
                                         1800   
                                         GRID   

              2      11        5.80       700     1000      520     1800     2100      700(1)   701     5300     5450     5400   
                                         GEOM     BASIS   MCVARS    GRID      RKS     GEOM     GEOM     HESS     NMOD     FREQ   
                                         2101   
                                          RKS  

 PROGRAMS   *        TOTAL    KS-SCF      FREQ      OPTG    KS-SCF       INT
 CPU TIMES  *       713.30      1.32     51.19    657.57      1.42      0.99
 REAL TIME  *       734.24 SEC
 DISK USED  *        63.63 MB
 **********************************************************************************************************************************


 PROGRAM * SURF (Surface generation)   Authors: G. Rauhut 2004, T. Hrenar 2005, M. Neff 2012, D. Oschetzki 2013

 Freezing grid

 Reference geometry in SURF calculation

   1  SI   14.00    -0.002949383    0.007269821   -0.004683624
   2  H     1.00     0.086830936    2.507169323   -1.017157569
   3  H     1.00     0.340135838    0.135699865    2.637954456
   4  H     1.00     2.178310481   -1.582726942   -0.972234182
   5  H     1.00    -2.523403250   -1.261950363   -0.518546663


 Information about detected symmetry elements:

 Detected point group: C1 

 Starting mppx-calculation of energy surfaces:

 Calculating 1D potential

 1D:   9  Points:   6 Conv: 0.00157353 0.00157346
 1D:   8  Points:   6 Conv: 0.00117446 0.00117447
 1D:   7  Points:   6 Conv: 0.00069897 0.00069900
 1D:   6  Points:   6 Conv: 0.00091979 0.00091982
 1D:   5  Points:   6 Conv: 0.00014532 0.00014532
 1D:   4  Points:   6 Conv: 0.00014078 0.00014078
 1D:   3  Points:   6 Conv: 0.00045556 0.00045555
 1D:   2  Points:   6 Conv: 0.00021801 0.00021801
 1D:   1  Points:   6 Conv: 0.00012583 0.00012583

 The determined shift and scalnm parameters are:

 scalnm,mode= 1,sfac=1.000,shift= 0
 scalnm,mode= 2,sfac=1.000,shift= 0
 scalnm,mode= 3,sfac=1.000,shift= 0
 scalnm,mode= 4,sfac=1.000,shift= 0
 scalnm,mode= 5,sfac=1.000,shift= 0
 scalnm,mode= 6,sfac=1.000,shift= 0
 scalnm,mode= 7,sfac=1.000,shift= 0
 scalnm,mode= 8,sfac=1.000,shift= 0
 scalnm,mode= 9,sfac=1.000,shift= 0

 Calculating 2D coupling potential

 2D:   9   8  Points:  16 Conv: 0.00000139 0.00000140
 2D:   9   7  Points:  16 Conv: 0.00000058 0.00000059
 2D:   9   6  Points:  16 Conv: 0.00000032 0.00000032
 2D:   9   5  Points:  16 Conv: 0.00000048 0.00000047
 2D:   9   4  Points:  16 Conv: 0.00000210 0.00000210
 2D:   9   3  Points:  16 Conv: 0.00000332 0.00000335
 2D:   9   2  Points:  16 Conv: 0.00000398 0.00000403
 2D:   9   1  Points:  16 Conv: 0.00000460 0.00000464
 2D:   8   7  Points:  16 Conv: 0.00000039 0.00000038
 2D:   8   6  Points:  16 Conv: 0.00000041 0.00000042
 2D:   8   5  Points:  16 Conv: 0.00000099 0.00000105
 2D:   8   4  Points:  16 Conv: 0.00000257 0.00000261
 2D:   8   3  Points:  16 Conv: 0.00000096 0.00000098
 2D:   8   2  Points:  16 Conv: 0.00000544 0.00000552
 2D:   8   1  Points:  16 Conv: 0.00000453 0.00000458
 2D:   7   6  Points:  16 Conv: 0.00000557 0.00000554
 2D:   7   5  Points:  16 Conv: 0.00000147 0.00000144
 2D:   7   4  Points:  16 Conv: 0.00000122 0.00000112
 2D:   7   3  Points:  16 Conv: 0.00000245 0.00000240
 2D:   7   2  Points:  16 Conv: 0.00000096 0.00000097
 2D:   7   1  Points:  16 Conv: 0.00000158 0.00000157
 2D:   6   5  Points:  16 Conv: 0.00000276 0.00000269
 2D:   6   4  Points:  16 Conv: 0.00000165 0.00000155
 2D:   6   3  Points:  16 Conv: 0.00000202 0.00000200
 2D:   6   2  Points:  16 Conv: 0.00000118 0.00000118
 2D:   6   1  Points:  16 Conv: 0.00000166 0.00000164
 2D:   5   4  Points:  16 Conv: 0.00000349 0.00000344
 2D:   5   3  Points:  16 Conv: 0.00000355 0.00000364
 2D:   5   2  Points:  16 Conv: 0.00000126 0.00000110
 2D:   5   1  Points:  16 Conv: 0.00000297 0.00000300
 2D:   4   3  Points:  16 Conv: 0.00000039 0.00000050
 2D:   4   2  Points:  16 Conv: 0.00000147 0.00000150
 2D:   4   1  Points:  16 Conv: 0.00000651 0.00000610
 2D:   3   2  Points:  16 Conv: 0.00000272 0.00000263
 2D:   3   1  Points:  16 Conv: 0.00000320 0.00000310
 2D:   2   1  Points:  16 Conv: 0.00000192 0.00000186

 Calculating 3D coupling potential

 3D:   9   8   7  Points:    8 Conv: 0.00000006
 3D:   9   8   6  Points:    8 Conv: 0.00000010
 3D:   9   8   5  Points:    8 Conv: 0.00000030
 3D:   9   8   4  Points:    8 Conv: 0.00000006
 3D:   9   8   3  Points:    8 Conv: 0.00000045
 3D:   9   8   2  Points:    8 Conv: 0.00000119
 3D:   9   8   1  Points:    8 Conv: 0.00000042
 3D:   9   7   6  Points:    8 Conv: 0.00000015
 3D:   9   7   5  Points:    8 Conv: 0.00000038
 3D:   9   7   4  Points:    8 Conv: 0.00000060
 3D:   9   7   3  Points:    8 Conv: 0.00000081
 3D:   9   7   2  Points:    8 Conv: 0.00000028
 3D:   9   7   1  Points:    8 Conv: 0.00000061
 3D:   9   6   5  Points:    8 Conv: 0.00000002
 3D:   9   6   4  Points:    8 Conv: 0.00000073
 3D:   9   6   3  Points:    8 Conv: 0.00000064
 3D:   9   6   2  Points:    8 Conv: 0.00000033
 3D:   9   6   1  Points:    8 Conv: 0.00000055
 3D:   9   5   4  Points:    8 Conv: 0.00000096
 3D:   9   5   3  Points:    8 Conv: 0.00000065
 3D:   9   5   2  Points:    8 Conv: 0.00000053
 3D:   9   5   1  Points:    8 Conv: 0.00000170
 3D:   9   4   3  Points:    8 Conv: 0.00000040
 3D:   9   4   2  Points:    8 Conv: 0.00000242
 3D:   9   4   1  Points:    8 Conv: 0.00000399
 3D:   9   3   2  Points:    8 Conv: 0.00000474
 3D:   9   3   1  Points:    8 Conv: 0.00000309
 3D:   9   2   1  Points:    8 Conv: 0.00000133
 3D:   8   7   6  Points:    8 Conv: 0.00000013
 3D:   8   7   5  Points:    8 Conv: 0.00000028
 3D:   8   7   4  Points:    8 Conv: 0.00000075
 3D:   8   7   3  Points:    8 Conv: 0.00000041
 3D:   8   7   2  Points:    8 Conv: 0.00000010
 3D:   8   7   1  Points:    8 Conv: 0.00000073
 3D:   8   6   5  Points:    8 Conv: 0.00000060
 3D:   8   6   4  Points:    8 Conv: 0.00000056
 3D:   8   6   3  Points:    8 Conv: 0.00000033
 3D:   8   6   2  Points:    8 Conv: 0.00000053
 3D:   8   6   1  Points:    8 Conv: 0.00000039
 3D:   8   5   4  Points:    8 Conv: 0.00000077
 3D:   8   5   3  Points:    8 Conv: 0.00000045
 3D:   8   5   2  Points:    8 Conv: 0.00000264
 3D:   8   5   1  Points:    8 Conv: 0.00000034
 3D:   8   4   3  Points:    8 Conv: 0.00000024
 3D:   8   4   2  Points:    8 Conv: 0.00000203
 3D:   8   4   1  Points:    8 Conv: 0.00000421
 3D:   8   3   2  Points:    8 Conv: 0.00000205
 3D:   8   3   1  Points:    8 Conv: 0.00000123
 3D:   8   2   1  Points:    8 Conv: 0.00000086
 3D:   7   6   5  Points:    8 Conv: 0.00000095
 3D:   7   6   4  Points:    8 Conv: 0.00000010
 3D:   7   6   3  Points:    8 Conv: 0.00000021
 3D:   7   6   2  Points:    8 Conv: 0.00000045
 3D:   7   6   1  Points:    8 Conv: 0.00000019
 3D:   7   5   4  Points:    8 Conv: 0.00000120
 3D:   7   5   3  Points:    8 Conv: 0.00000004
 3D:   7   5   2  Points:    8 Conv: 0.00000137
 3D:   7   5   1  Points:    8 Conv: 0.00000095
 3D:   7   4   3  Points:    8 Conv: 0.00000125
 3D:   7   4   2  Points:    8 Conv: 0.00000018
 3D:   7   4   1  Points:    8 Conv: 0.00000061
 3D:   7   3   2  Points:    8 Conv: 0.00000115
 3D:   7   3   1  Points:    8 Conv: 0.00000036
 3D:   7   2   1  Points:    8 Conv: 0.00000057
 3D:   6   5   4  Points:    8 Conv: 0.00000004
 3D:   6   5   3  Points:    8 Conv: 0.00000073
 3D:   6   5   2  Points:    8 Conv: 0.00000042
 3D:   6   5   1  Points:    8 Conv: 0.00000199
 3D:   6   4   3  Points:    8 Conv: 0.00000158
 3D:   6   4   2  Points:    8 Conv: 0.00000052
 3D:   6   4   1  Points:    8 Conv: 0.00000086
 3D:   6   3   2  Points:    8 Conv: 0.00000066
 3D:   6   3   1  Points:    8 Conv: 0.00000070
 3D:   6   2   1  Points:    8 Conv: 0.00000097
 3D:   5   4   3  Points:    8 Conv: 0.00000085
 3D:   5   4   2  Points:    8 Conv: 0.00000013
 3D:   5   4   1  Points:    8 Conv: 0.00000037
 3D:   5   3   2  Points:    8 Conv: 0.00000115
 3D:   5   3   1  Points:    8 Conv: 0.00000044
 3D:   5   2   1  Points:    8 Conv: 0.00000086
 3D:   4   3   2  Points:    8 Conv: 0.00000064
 3D:   4   3   1  Points:    8 Conv: 0.00000120
 3D:   4   2   1  Points:    8 Conv: 0.00000024
 3D:   3   2   1  Points:    8 Conv: 0.00000109

 Grid calculation completed

 Formal number of grid points:    353424
 Actual number of grid points:      1482 Time (sec):        845.8
 Number of 1D grid points:           234 Time (sec):        143.7
 Number of 2D grid points:           576 Time (sec):        321.4
 Number of 3D grid points:           672 Time (sec):        380.6

 CPU-Time for SURF calculation:        848.0 sec.


 **********************************************************************************************************************************
 DATASETS  * FILE   NREC   LENGTH (MB)   RECORD NAMES
              1      21       37.67       500      610      700      900      700(1)   950      970     1000      129      960   
                                          VAR    BASINP    GEOM    SYMINP    GEOM     ZMAT    AOBASIS   BASIS     P2S    ABASIS    
                                         1100     1400     1410     1200     1210     1080     1600     1650     1300     1700   
                                           S        T        V       H0       H01     AOSYM     SMH    MOLCAS    ERIS     OPER   
                                         1800   
                                         GRID   

              2      14       84.32       700     1000      520     1800     2100      700(1)   701     5300     5450     5400   
                                         GEOM     BASIS   MCVARS    GRID      RKS     GEOM     GEOM     HESS     NMOD     FREQ   
                                         2101     5600     5650     5550   
                                          RKS     SURF    DIPOLE   VIBINFO    

 PROGRAMS   *        TOTAL      SURF       INT    KS-SCF       INT    KS-SCF       INT    KS-SCF       INT    KS-SCF       INT
 CPU TIMES  *      1561.39      9.21      0.92      1.33      0.93      1.29      0.91      1.34      0.89      1.30      0.91
 REAL TIME  *      1634.70 SEC
 DISK USED  *       144.45 MB
 **********************************************************************************************************************************


 PROGRAM * POLY (Transformation of PES grid representation to an analytic representation)   Authors: G. Rauhut 2008, M. Neff 2010, B. Ziegler 2019
 
 Reading potential information from:      5600.2
 Reading dipole information from:         5650.2
 
 Watson correction term has NOT been added to the potential.

 Time to compute the number of basis functions:    0.4 sec
 Number of basis functions:  5

        dim  chi_av       chi_max      time in sec      Surface

 Energy 1D   0.9862E-15   0.5062E-14     0.0            1
        2D   0.1934E-14   0.1437E-13     0.0            1  9
        3D   0.2502E-14   0.2750E-13     0.4            8  6  2

 Dipole 1D   0.1867E-11   0.1224E-10     0.0            4
        2D   0.2619E-10   0.1791E-09     0.1            3  6
        3D   0.3442E-12   0.1294E-10     1.2            9  6  2
 
 Harmonic frequencies obtained from polynomial fit

   Mode        Ref.         Fit

   9 A       2634.26     2628.64
   8 A       2537.10     2531.18
   7 A       2086.04     2081.97
   6 A       2076.75     2084.53
   5 A        994.57      975.03
   4 A        965.87      951.19
   3 A        950.41      929.13
   2 A        900.76      882.53
   1 A        868.59      866.96
 

 CPU-Time for POLY calculation:          2.2 sec.


 **********************************************************************************************************************************
 DATASETS  * FILE   NREC   LENGTH (MB)   RECORD NAMES
              1      21       37.67       500      610      700      900      700(1)   950      970     1000      129      960   
                                          VAR    BASINP    GEOM    SYMINP    GEOM     ZMAT    AOBASIS   BASIS     P2S    ABASIS    
                                         1100     1400     1410     1200     1210     1080     1600     1650     1300     1700   
                                           S        T        V       H0       H01     AOSYM     SMH    MOLCAS    ERIS     OPER   
                                         1800   
                                         GRID   

              2      16       84.81       700     1000      520     1800     2100      700(1)   701     5300     5450     5400   
                                         GEOM     BASIS   MCVARS    GRID      RKS     GEOM     GEOM     HESS     NMOD     FREQ   
                                         2101     5600     5650     5550     5750     5770   
                                          RKS     SURF    DIPOLE   VIBINFO   POLY      MU  

 PROGRAMS   *        TOTAL      POLY    KS-SCF       INT    KS-SCF       INT    KS-SCF       INT    KS-SCF       INT    KS-SCF
 CPU TIMES  *      1563.67      2.22      1.36      0.92      1.33      0.93      1.29      0.91      1.34      0.89      1.30
 REAL TIME  *      1637.00 SEC
 DISK USED  *       144.45 MB
 **********************************************************************************************************************************


 PROGRAM * VPT2 (2nd Order Vibrational Perturbation Theory)   Authors: R. Ramakrishnan, G. Rauhut 2015, B. Schroeder 2017

 Reading potential from record        5600.2

 Asymmetric top molecule


 Non-zero Coriolis zeta constants

   Modes        a             b             c

   9  8     -0.008808      0.001297      0.001018
   9  7     -0.004113     -0.005166      0.000872
   9  6      0.000853      0.000905     -0.000098
   9  5      0.096893      0.155861     -0.018366
   9  4      0.037749     -0.437833      0.031383
   9  3      0.532567      0.082440     -0.073027
   9  2     -0.548509      0.320104      0.057743
   9  1      0.222062      0.570250     -0.041702
   8  7     -0.004394     -0.002922     -0.009262
   8  6      0.004042     -0.003302     -0.008262
   8  5     -0.253274      0.057666      0.107806
   8  4     -0.038920     -0.217222     -0.500883
   8  3      0.177111      0.009699      0.031673
   8  2      0.643053     -0.113587     -0.236739
   8  1     -0.327656     -0.178356     -0.502654
   7  6      0.000145     -0.003182      0.005975
   7  5      0.048744     -0.289793      0.654028
   7  4      0.290622      0.088575      0.336200
   7  3     -0.389602     -0.541378     -0.115667
   7  2     -0.081306     -0.261209      0.194295
   7  1      0.028415     -0.022884      0.124048
   6  5     -0.107315     -0.048707      0.595520
   6  4      0.222508     -0.473870     -0.140341
   6  3      0.282110     -0.351081     -0.125611
   6  2      0.031481     -0.037827      0.005484
   6  1     -0.072550      0.301632     -0.358022
   5  4      0.126341      0.156132      0.170165
   5  3      0.592449     -0.070883     -0.178443
   5  2      0.140411     -0.028556      0.082213
   5  1     -0.185287     -0.232373      0.061895
   4  3      0.208357     -0.169195      0.210314
   4  2      0.056913     -0.444491     -0.148262
   4  1      0.251675      0.213650      0.078655
   3  2     -0.106431      0.149555      0.245310
   3  1      0.128311      0.232577      0.337239
   2  1     -0.046726      0.411338     -0.513894
 

 VPT2 Vibration-rotation interaction constants (in cm-1)

                       Harmonic                                Coriolis                                Anharmonic
           _________________________________       _________________________________       _________________________________

 Mode           A           B           C               A           B           C               A           B           C

   9       -0.007181   -0.006743   -0.000112       -0.016189   -0.014932   -0.000242        0.042495    0.039686    0.003659
   8       -0.008355   -0.001027   -0.005092       -0.016189   -0.002321   -0.012398        0.046155    0.008389    0.032441
   7       -0.004844   -0.005889   -0.005948       -0.008882   -0.015044   -0.018331        0.028940    0.037918    0.045068
   6       -0.002305   -0.008925   -0.009779       -0.005347   -0.014695   -0.015584        0.017310    0.044893    0.049806
   5       -0.009782   -0.010696   -0.002075       -0.015044   -0.010976    0.023354       -0.000815   -0.005495   -0.007404
   4       -0.012906   -0.004288   -0.008466       -0.020587   -0.104261   -0.001194       -0.001223   -0.010910   -0.003112
   3       -0.000465   -0.004707   -0.005644        0.011653   -0.007079   -0.041325       -0.006335   -0.009235   -0.006674
   2       -0.002150   -0.003913   -0.005725        0.032877    0.109925    0.015312       -0.010747   -0.004067   -0.010406
   1       -0.004384   -0.003365   -0.002012        0.047197    0.067194    0.056819       -0.006217   -0.010886   -0.008454


                          Total
           _________________________________

 Mode           A           B           C

   9        0.019125    0.018011    0.003305
   8        0.021612    0.005041    0.014952
   7        0.015214    0.016984    0.020788
   6        0.009659    0.021273    0.024444
   5       -0.025641   -0.027166    0.013874
   4       -0.034716   -0.119458   -0.012772
   3        0.004854   -0.021021   -0.053643
   2        0.019980    0.101945   -0.000819
   1        0.036596    0.052943    0.046353


 VPT2 Quartic centrifugal distortion constants (in cm-1)

                  Tau               Tau'

    AAAA    -0.145610E-03     -0.145610E-03
    BBBB    -0.143064E-03     -0.143064E-03
    CCCC    -0.104789E-03     -0.104789E-03
    BBAA     0.136773E-04     -0.146767E-03
    CCAA    -0.200594E-04     -0.201836E-03
    CCBB    -0.232242E-04     -0.173531E-03


 VPT2 Quartic centrifugal distortion constants in the Nielsen formalism (cm-1)


    DJ       0.340818E-04
    DK      -0.166664E-04
    DJK      0.189870E-04
    R5       0.463791E-05
    R6       0.155013E-05
    dJ       0.239219E-05


 VPT2 State-dependent vibrationally averaged rotational constants (in cm-1) 

   Ref.            3.04578     2.92172     2.76035

   |000000000>     3.01244     2.89744     2.73211
   |000000001>     2.99332     2.87943     2.72880
   |000000002>     2.97419     2.86142     2.72550
   |000000010>     2.99083     2.89240     2.71716
   |000000011>     2.97170     2.87439     2.71385
   |000000020>     2.96922     2.88736     2.70220
   |000000100>     2.99723     2.88046     2.71132
   |000000101>     2.97810     2.86245     2.70801
   |000000110>     2.97562     2.87542     2.69637
   |000000200>     2.98201     2.86347     2.69053
   |000001000>     3.00278     2.87617     2.70766
   |000001001>     2.98366     2.85816     2.70436
   |000001010>     2.98117     2.87113     2.69271
   |000001100>     2.98757     2.85919     2.68688
   |000002000>     2.99312     2.85490     2.68322
   |000010000>     3.03808     2.92461     2.71823
   |000010001>     3.01896     2.90660     2.71493
   |000010010>     3.01647     2.91957     2.70328
   |000010100>     3.02287     2.90762     2.69745
   |000011000>     3.02842     2.90334     2.69379
   |000020000>     3.06372     2.95178     2.70436
   |000100000>     3.04716     3.01690     2.74488
   |000100001>     3.02803     2.99889     2.74157
   |000100010>     3.02555     3.01186     2.72993
   |000100100>     3.03194     2.99992     2.72409
   |000101000>     3.03750     2.99563     2.72044
   |000110000>     3.07280     3.04407     2.73101
   |000200000>     3.08187     3.13636     2.75765
   |001000000>     3.00759     2.91846     2.78575
   |001000001>     2.98846     2.90045     2.78245
   |001000010>     2.98598     2.91342     2.77080
   |001000100>     2.99237     2.90148     2.76496
   |001001000>     2.99793     2.89719     2.76131
   |001010000>     3.03323     2.94563     2.77188
   |001100000>     3.04230     3.03792     2.79852
   |002000000>     3.00273     2.93948     2.83939
   |010000000>     2.99246     2.79550     2.73293
   |010000001>     2.97334     2.77749     2.72962
   |010000010>     2.97085     2.79046     2.71798
   |010000100>     2.97725     2.77851     2.71214
   |010001000>     2.98280     2.77422     2.70848
   |010010000>     3.01810     2.82266     2.71905
   |010100000>     3.02718     2.91496     2.74570
   |011000000>     2.98761     2.81652     2.78657
   |020000000>     2.97248     2.69355     2.73375
   |100000000>     2.97585     2.84450     2.68575
   |100000001>     2.95672     2.82649     2.68245
   |100000010>     2.95423     2.83946     2.67080
   |100000100>     2.96063     2.82752     2.66497
   |100001000>     2.96619     2.82323     2.66131
   |100010000>     3.00149     2.87167     2.67188
   |100100000>     3.01056     2.96396     2.69853
   |101000000>     2.97099     2.86552     2.73940
   |110000000>     2.95587     2.74256     2.68657
   |200000000>     2.93925     2.79156     2.63940


 VPT2 zero-point vibrational energy (in cm^-1)

 Harmonic:        6965.58016
 Anharmonic:       -59.32135
 Kinetic:            1.27951
 Total:           6907.53832

 Results of VPT2 calculation (Frequencies in cm-1)


 Fundamentals

       Mode           Harmonic    Anharmonic     Intensity
       9^1 A           2628.64       2553.79         87.99
       8^1 A           2531.18       2487.98         80.94
       7^1 A           2081.97       1969.07        114.18
       6^1 A           2084.53       1946.26         70.36
       5^1 A            975.03        985.85         38.79
       4^1 A            951.19        956.00         49.17
       3^1 A            929.13        943.72        113.00
       1^1 A            866.96        881.66        147.19
       2^1 A            882.53        864.11        107.27


 Overtones

       Mode           Harmonic    Anharmonic     Intensity
       7^2 A           4163.93       3831.71          0.99
       6^2 A           4169.06       3807.19          0.88
       5^2 A           1950.06       1999.81          1.65
       4^2 A           1902.39       1916.17          0.04
       3^2 A           1858.25       1891.57          0.67
       1^2 A           1733.92       1775.11          0.03
       2^2 A           1765.06       1713.30          0.06


 Combination bands

       Mode           Harmonic    Anharmonic     Intensity
  7^1  9^1 A           4710.61       4521.49          0.02
  6^1  9^1 A           4713.17       4513.50          0.02
  7^1  8^1 A           4613.15       4455.91          0.02
  6^1  8^1 A           4615.71       4447.46          0.02
  6^1  7^1 A           4166.50       3921.23          0.08
  5^1  9^1 A           3603.67       3539.16          0.01
  4^1  9^1 A           3579.83       3504.77          0.06
  3^1  9^1 A           3557.77       3493.51          0.09
  5^1  8^1 A           3506.21       3471.17          0.12
  4^1  8^1 A           3482.38       3442.01          0.15
  1^1  9^1 A           3495.60       3429.82          0.06
  3^1  8^1 A           3460.31       3429.63          0.14
  2^1  9^1 A           3511.17       3409.62          0.15
  1^1  8^1 A           3398.15       3372.05          0.10
  2^1  8^1 A           3413.71       3340.90          0.13
  5^1  7^1 A           3056.99       2942.28          0.19
  5^1  6^1 A           3059.56       2935.79          0.13
  4^1  7^1 A           3033.16       2916.04          0.06
  3^1  7^1 A           3011.09       2904.48          0.05
  4^1  6^1 A           3035.72       2903.90          0.05
  3^1  6^1 A           3013.66       2899.68          0.02
  1^1  7^1 A           2948.93       2842.90          0.11
  1^1  6^1 A           2951.49       2833.28          0.03
  2^1  7^1 A           2964.50       2831.10          0.04
  2^1  6^1 A           2967.06       2819.59          0.07
  4^1  5^1 A           1926.22       1944.70          0.46
  3^1  5^1 A           1904.16       1942.12          0.08
  3^1  4^1 A           1880.32       1903.35          0.80
  1^1  5^1 A           1841.99       1868.89          0.36
  1^1  4^1 A           1818.15       1852.80          0.47
  2^1  5^1 A           1857.56       1850.76          0.32
  1^1  3^1 A           1796.09       1827.25          0.04
  2^1  4^1 A           1833.72       1824.34          0.08
  2^1  3^1 A           1811.66       1814.08          0.14
  1^1  2^1 A           1749.49       1748.68          0.06

 CPU-Time for VPT2 calculation:          0.0 sec.


 **********************************************************************************************************************************
 DATASETS  * FILE   NREC   LENGTH (MB)   RECORD NAMES
              1      21       37.67       500      610      700      900      700(1)   950      970     1000      129      960   
                                          VAR    BASINP    GEOM    SYMINP    GEOM     ZMAT    AOBASIS   BASIS     P2S    ABASIS    
                                         1100     1400     1410     1200     1210     1080     1600     1650     1300     1700   
                                           S        T        V       H0       H01     AOSYM     SMH    MOLCAS    ERIS     OPER   
                                         1800   
                                         GRID   

              2      16       84.81       700     1000      520     1800     2100      700(1)   701     5300     5450     5400   
                                         GEOM     BASIS   MCVARS    GRID      RKS     GEOM     GEOM     HESS     NMOD     FREQ   
                                         2101     5600     5650     5550     5750     5770   
                                          RKS     SURF    DIPOLE   VIBINFO   POLY      MU  

 PROGRAMS   *        TOTAL      VPT2      POLY    KS-SCF       INT    KS-SCF       INT    KS-SCF       INT    KS-SCF       INT
 CPU TIMES  *      1563.72      0.01      2.22      1.36      0.92      1.33      0.93      1.29      0.91      1.34      0.89
 REAL TIME  *      1637.06 SEC
 DISK USED  *       144.45 MB
 **********************************************************************************************************************************

 VPT2/DEF2-TZVP energy=      0.000000000000

            VPT2            POLY          KS-SCF          KS-SCF          KS-SCF          KS-SCF          KS-SCF          KS-SCF
   -291.87080419   -291.87080419   -291.87080419   -291.87253049   -291.87156607   -291.87173626   -291.87201671   -291.87213814
 **********************************************************************************************************************************
 Molpro calculation terminated with 1 warning(s)
