
 Primary working directories    : /jobfs/6978532.gadi-pbs/molpro.lS0YLv6I40
 Secondary working directories  : /jobfs/6978532.gadi-pbs/molpro.lS0YLv6I40
 Wavefunction directory         : /home/561/pk8622/wfu/
 Main file repository           : /jobfs/6978532.gadi-pbs/molpro.lS0YLv6I40/

 id        : anu

 Nodes                            nprocs
 gadi-cpu-clx-0776.gadi.nci.org.au    1

 Using customized tuning parameters: mindgm=1; mindgv=20; mindgc=4; mindgr=1; noblas=0; minvec=7
 default implementation of scratch files=df  


 Variables initialized (934), CPU time= 0.01 sec
 ***,MOLPRO Geometry optimization + VSCF calculation for trichlorofluoromethane
 
 memory,40,m
 basis=def2-TZVP
 
 orient,mass
 geomtyp=xyz
 geometry={
 5
 C,-0.35973, 1.37679,-0.04814
 Cl, 1.41506, 1.39227,-0.06459
 F,-0.81285, 2.25577,-0.98236
 Cl,-0.96181, 1.87642, 1.54494
 Cl,-0.96181,-0.24375,-0.44985
 }
 mass,iso
 
 ks,M06
 optg
 frequencies
 
 label1
 ks,M06
 
 surf,start1D=label1,type=qff
 poly,type=qff
 vpt2,combi=1
 Commands  initialized (763), CPU time= 0.01 sec, 617 directives.
 Default parameters read. Elapsed time= 0.13 sec

 Checking input...
 Passed
1


                                         ***  PROGRAM SYSTEM MOLPRO  ***
                                       Copyright, TTI GmbH Stuttgart, 2015
                                    Version 2019.2 linked Nov 21 2019 12:21:21


 **********************************************************************************************************************************
 LABEL *   MOLPRO Geometry optimization + VSCF calculation for trichlorofluoromet        
  64 bit serial version                                                                  DATE: 15-Jun-20          TIME: 13:17:15  
 **********************************************************************************************************************************

 SHA1:             8dbd9ae1082e4ce945b0f27595c9eb2d4aa09004
 **********************************************************************************************************************************

 Variable memory set to   40000000 words,  buffer space 

 SETTING BASIS          =    DEF2-TZVP
 SETTING GEOMTYP        =    XYZ
 ZCENTRE=MASS
 


 Using masses of most abundant isotopes

 **********************************************************************************************************************************


 Recomputing integrals since basis changed


 Using spherical harmonics

 Library entry C      S def2-TZVP            selected for orbital group  1
 Library entry C      P def2-TZVP            selected for orbital group  1
 Library entry C      D def2-TZVP            selected for orbital group  1
 Library entry C      F def2-TZVP            selected for orbital group  1
 Library entry CL     S def2-TZVP            selected for orbital group  2
 Library entry CL     P def2-TZVP            selected for orbital group  2
 Library entry CL     D def2-TZVP            selected for orbital group  2
 Library entry CL     F def2-TZVP            selected for orbital group  2
 Library entry F      S def2-TZVP            selected for orbital group  3
 Library entry F      P def2-TZVP            selected for orbital group  3
 Library entry F      D def2-TZVP            selected for orbital group  3
 Library entry F      F def2-TZVP            selected for orbital group  3


 PROGRAM * SEWARD (Integral evaluation for generally contracted gaussian basis sets)     Author: Roland Lindh, 1990

 Geometry written to block  1 of record 700

 Orientation using atomic masses  
 Molecule type: Asymmetric top
 Rotational constants:       2.4185294      1.7053954      2.4185808 GHz

 Point group  C1  



 ATOMIC COORDINATES

 NR  ATOM    CHARGE       X              Y              Z

   1  C       6.00   -0.000004505   -0.472643432   -0.000140049
   2  CL     17.00    0.009614516    0.605635754    3.175937342
   3  F       9.00    0.000010543   -3.043428275    0.001015081
   4  CL     17.00    2.745737220    0.605020928   -1.596548134
   5  CL     17.00   -2.755355918    0.605016094   -1.579892637

 Bond lengths in Bohr (Angstrom)

 1-2  3.354138656  1-3  2.570785103  1-4  3.353949443  1-5  3.353942412
     ( 1.774933739)     ( 1.360400891)     ( 1.774833612)     ( 1.774829891)

 Bond angles

  2-1-3  108.72653910   2-1-4  110.18594839   2-1-5  110.18610758   3-1-4  108.75493915

  3-1-5  108.75533862   4-1-5  110.18890151

 NUCLEAR CHARGE:                   66
 NUMBER OF PRIMITIVE AOS:         309
 NUMBER OF SYMMETRY AOS:          281
 NUMBER OF CONTRACTIONS:          173   (  173A   )
 NUMBER OF CORE ORBITALS:          17   (   17A   )
 NUMBER OF VALENCE ORBITALS:       20   (   20A   )


 NUCLEAR REPULSION ENERGY  364.72852463


 Eigenvalues of metric

         1 0.239E-02 0.390E-02 0.390E-02 0.402E-02 0.737E-02 0.117E-01 0.173E-01 0.173E-01


 Contracted 2-electron integrals neglected if value below      1.0D-11
 AO integral compression algorithm  1   Integral accuracy      1.0D-11

     369.623 MB (compressed) written to integral file ( 34.5%)


 NUMBER OF SORTED TWO-ELECTRON INTEGRALS:  113273826.     BUFFER LENGTH:  32768
 NUMBER OF SEGMENTS:   8  SEGMENT LENGTH:   15999503      RECORD LENGTH: 524288

 Memory used in sort:      16.56 MW

 SORT1 READ   133908609. AND WROTE    87404548. INTEGRALS IN    253 RECORDS. CPU TIME:     3.21 SEC, REAL TIME:     3.68 SEC
 SORT2 READ    87404548. AND WROTE   113273826. INTEGRALS IN   1410 RECORDS. CPU TIME:     1.93 SEC, REAL TIME:     2.22 SEC

 FILE SIZES:   FILE 1:   400.8 MBYTE,  FILE 4:  1061.2 MBYTE,   TOTAL:   1462.0 MBYTE

 OPERATOR DM      FOR CENTER  0  COORDINATES:    0.000000    0.000000    0.000000


 **********************************************************************************************************************************
 DATASETS  * FILE   NREC   LENGTH (MB)   RECORD NAMES
              1      19      335.76       500      610      700      900      950      970     1000      129      960     1100   
                                          VAR    BASINP    GEOM    SYMINP    ZMAT    AOBASIS   BASIS     P2S    ABASIS      S 
                                         1400     1410     1200     1210     1080     1600     1650     1300     1700   
                                           T        V       H0       H01     AOSYM     SMH    MOLCAS    ERIS     OPER   

 PROGRAMS   *        TOTAL       INT
 CPU TIMES  *        46.14     45.48
 REAL TIME  *        47.47 SEC
 DISK USED  *         1.46 GB
 **********************************************************************************************************************************

 Density functional group M06=XC-M06
 Functional: XC-M06(via MFM 1.6)                                               Gradient terms: 1
 Use libxcgrid:  F
 Use grid at  1800.2
 

 Exact exchange will be calculated, factor:  0.2700

 Functional: XC-M06                    Factor:  1.0000
 
 Generated new metagrid on record  1800.2 with target accuracy 1.0D-06 and 42482 points in CPU time    0.4
 Computed new grid on record 1800.1 in CPU time    0.5
  141995 words reserved for DFT integration

 PROGRAM * RKS-SCF (Restricted closed shell Kohn-Sham)     Authors: W. Meyer, H.-J. Werner, P.J. Knowles, 1993

 NUMBER OF ELECTRONS:      33+   33-    SPACE SYMMETRY=1    SPIN SYMMETRY: Singlet 
 CONVERGENCE THRESHOLDS:    1.00E-06 (Density)    1.00E-06 (Energy)
 MAX. NUMBER OF ITERATIONS:       60
 INTERPOLATION TYPE:            DIIS
 INTERPOLATION STEPS:              2 (START)      1 (STEP)
 LEVEL SHIFTS:                  0.00 (CLOSED)  0.00 (OPEN) 



 Use fine grid record 1800.2 for energy threshold  1.0D-06
 Orbital guess generated from atomic densities. Full valence occupancy:   33

 Molecular orbital dump at record        2100.2

 Initial occupancy:  33

 ITERATION    DDIFF          GRAD             ENERGY        2-EL.EN.            DIPOLE MOMENTS         DIIS   ORB.
    1      0.000D+00      0.000D+00     -1518.44551617   2029.901177   -0.00001    0.17919   -0.00091    0    start
    2      0.000D+00      0.421D-02     -1518.29330284   2031.053211    0.00016    0.37213    0.00273    1    diag
    3      0.531D-02      0.800D-02     -1518.50842063   2027.359025   -0.00009    0.15050    0.00053    2    diag
    4      0.333D-02      0.491D-03     -1518.50905887   2029.138480    0.00002    0.23600    0.00066    3    diag
    5      0.424D-03      0.281D-03     -1518.50934437   2028.737891   -0.00002    0.18572    0.00058    4    diag
    6      0.158D-03      0.896D-04     -1518.50936800   2028.664915   -0.00002    0.20186    0.00059    5    diag
    7      0.507D-04      0.968D-05     -1518.50936828   2028.668947   -0.00002    0.19806    0.00060    6    diag
    8      0.728D-05      0.316D-05     -1518.50936833   2028.670891   -0.00002    0.19955    0.00059    7    diag
    9      0.186D-05      0.710D-06     -1518.50936833   2028.670732   -0.00002    0.19929    0.00059    8    diag
   10      0.405D-06      0.911D-07     -1518.50936833   2028.670662   -0.00002    0.19930    0.00059    0    orth

 Final occupancy:  33

 !RKS STATE  1.1 Energy             -1518.509368327860
 Nuclear energy                       364.72852463
 One-electron energy                -2823.47377941
 Two-electron energy                 1014.33533124
 SCF exchange energy                  -97.82040354     Factor= 0.2700
 Density functional                   -74.09944478     XC-M06=-74.09944478
 Virial quotient                       -1.00189163
 !RKS STATE  1.1 Dipole moment         -0.00001791     0.19929816     0.00059267
 Dipole moment /Debye                  -0.00004553     0.50653223     0.00150631

 Orbital energies:

         1.1          2.1          3.1          4.1          5.1          6.1          7.1          8.1          9.1         10.1
   -101.750292  -101.750271  -101.750265   -24.832683   -10.511335    -9.621298    -9.621278    -9.621272    -7.332955    -7.332934

        11.1         12.1         13.1         14.1         15.1         16.1         17.1         18.1         19.1         20.1
     -7.332927    -7.322635    -7.322616    -7.322611    -7.322540    -7.322520    -7.322515    -1.312710    -0.964218    -0.881089

        21.1         22.1         23.1         24.1         25.1         26.1         27.1         28.1         29.1         30.1
     -0.881075    -0.686939    -0.574851    -0.558201    -0.558182    -0.448632    -0.448591    -0.388360    -0.376936    -0.376810

        31.1         32.1         33.1         34.1         35.1
     -0.347710    -0.347695    -0.333831    -0.050492     0.003257


 HOMO     33.1    -0.333831 =      -9.0840eV
 LUMO     34.1    -0.050492 =      -1.3740eV
 LUMO-HOMO         0.283339 =       7.7101eV


 **********************************************************************************************************************************
 DATASETS  * FILE   NREC   LENGTH (MB)   RECORD NAMES
              1      20      337.12       500      610      700      900      950      970     1000      129      960     1100   
                                          VAR    BASINP    GEOM    SYMINP    ZMAT    AOBASIS   BASIS     P2S    ABASIS      S 
                                         1400     1410     1200     1210     1080     1600     1650     1300     1700     1800   
                                           T        V       H0       H01     AOSYM     SMH    MOLCAS    ERIS     OPER     GRID   

              2       5        3.45       700     1000      520     1800     2100   
                                         GEOM     BASIS   MCVARS    GRID      RKS  

 PROGRAMS   *        TOTAL    KS-SCF       INT
 CPU TIMES  *        66.75     20.61     45.48
 REAL TIME  *        68.65 SEC
 DISK USED  *         1.46 GB
 **********************************************************************************************************************************


 PROGRAM * OPT (Geometry optimization)     Authors: F. Eckert and H.-J. Werner


 BFGS update of hessian

 *** Long output written to logfile /scratch/on41/pk8622/Test_Calcs/Molpro/VPT2/trichlorofluoromethane_vpt2.log ***


 Geometry optimization using default procedure for command KS-SCF

 Geometry written to block  1 of record 700

 Making model hessian for cartesian coordinates

 Entering Rational Function Geometry Optimization

 ITER.   ENERGY(OLD)    ENERGY(NEW)      DE          GRADMAX     GRADNORM    GRADRMS     STEPMAX     STEPLEN     STEPRMS   CPU-time
   1 -1518.50936833 -1518.51012263    -0.00075430  0.02749303  0.03703956  0.00411551  0.01854880  0.02657609  0.01188519    269.13
   2 -1518.51012263 -1518.51066826    -0.00054563  0.01767547  0.02491388  0.00276821  0.03651299  0.05272474  0.02357922    541.14
 Freezing grid
   3 -1518.51066826 -1518.51066607     0.00000219  0.00573361  0.00579188  0.00064354  0.00589877  0.00789226  0.00352953    814.30
   4 -1518.51066607 -1518.51066966    -0.00000360  0.00166445  0.00204398  0.00022711  0.00117770  0.00141609  0.00063329   1087.07
   5 -1518.51066966 -1518.51061730     0.00005236  0.00134663  0.00162067  0.00018007  0.00441066  0.00514249  0.00229979   1363.51
   6 -1518.51061730 -1518.49754976     0.01306754  0.00099654  0.00116013  0.00012890  0.26162198  0.30000000  0.13416408   1637.54
   7 -1518.49754976 -1518.51034062    -0.01279086  0.08447872  0.09980127  0.01108903  0.24815778  0.30000000  0.13416408   1922.24
   8 -1518.51034062 -1518.51059587    -0.00025524  0.00712958  0.01052303  0.00116923  0.01704557  0.02455765  0.01098252   2194.60
   9 -1518.51059587 -1518.48945049     0.02114538  0.00393621  0.00509114  0.00056568  0.25606084  0.30000000  0.13416408   2471.21
  10 -1518.48945049 -1518.50654700    -0.01709651  0.15293273  0.19258283  0.02139809  0.21948089  0.30000000  0.13416408   2754.93
  11 -1518.50654700 -1518.50452729     0.00201971  0.05446916  0.06098233  0.00677581  0.21285852  0.30000000  0.13416408   3027.19
  12 -1518.50452729 -1518.51004604    -0.00551875  0.04229645  0.05308818  0.00589869  0.15346815  0.20168665  0.09019701   3291.64
  13 -1518.51004604 -1518.51043396    -0.00038792  0.01064670  0.01437123  0.00159680  0.05143271  0.06066496  0.02713019   3561.52
  14 -1518.51043396 -1518.51054981    -0.00011585  0.00522426  0.00960594  0.00106733  0.02573976  0.02894250  0.01294348   3832.49
  15 -1518.51054981 -1518.51056332    -0.00001351  0.00390268  0.00488852  0.00054317  0.02036762  0.02751921  0.01230696   4104.86
  16 -1518.51056332 -1518.51042272     0.00014059  0.00232867  0.00296418  0.00032935  0.03631645  0.04056928  0.01814313   4374.51
  17 -1518.51042272 -1518.51056711    -0.00014438  0.00837319  0.00893835  0.00099315  0.01863594  0.02156981  0.00964631   4645.63
  18 -1518.51056711 -1518.51064012    -0.00007302  0.00282442  0.00308393  0.00034266  0.01481968  0.01692421  0.00756874   4917.77
  19 -1518.51064012 -1518.51061139     0.00002873  0.00160467  0.00191639  0.00021293  0.02008192  0.02293283  0.01025587   5185.97
  20 -1518.51061139 -1518.51064268    -0.00003129  0.00426770  0.00442987  0.00049221  0.01168115  0.01351552  0.00604432   5455.14
  21 -1518.51064268 -1518.51063256     0.00001012  0.00078889  0.00084522  0.00009391  0.00389460  0.00467929  0.00209264   5727.81
  22 -1518.51063256 -1518.51063034     0.00000222  0.00037160  0.00055133  0.00006126  0.00178192  0.00202192  0.00090423   5998.61
  23 -1518.51063034 -1518.51062107     0.00000927  0.00014258  0.00028702  0.00003189  0.00045045  0.00069319  0.00031000   6270.76
  24 -1518.51062107 -1518.51059746     0.00002361  0.00014009  0.00021334  0.00002370  0.00077007  0.00127656  0.00057090   6545.34
  25 -1518.51059746 -1518.51058755     0.00000992  0.00018212  0.00027497  0.00003055  0.00439282  0.00499172  0.00223237   6819.21
  26 -1518.51058755 -1518.50306298     0.00752457  0.00111877  0.00124984  0.00013887  0.18647162  0.30000000  0.13416408   7092.40
  27 -1518.50306298 -1518.49766257     0.00540041  0.03162607  0.06272724  0.00696969  0.17768661  0.30000000  0.13416408   7367.86
  28 -1518.49766257 -1518.50298056    -0.00531800  0.03687965  0.07234257  0.00803806  0.19391871  0.30000000  0.13416408   7643.23
  29 -1518.50298056 -1518.49369569     0.00928487  0.02826193  0.04979882  0.00553320  0.17547821  0.30000000  0.13416408   7917.15
  30 -1518.49369569 -1518.49965584    -0.00596015  0.05142485  0.08959703  0.00995523  0.24429260  0.30000000  0.13416408   8195.72
  31 -1518.49965584 -1518.50635072    -0.00669487  0.03177825  0.06124626  0.00680514  0.16502052  0.30000000  0.13416408   8466.58
  32 -1518.50635072 -1518.50699333    -0.00064262  0.03226741  0.04859562  0.00539951  0.18775075  0.30000000  0.13416408   8741.95
  33 -1518.50699333 -1518.50136335     0.00562998  0.02998809  0.04180826  0.00464536  0.23580739  0.30000000  0.13416408   9014.38
  34 -1518.50136335 -1518.49361447     0.00774888  0.06313860  0.08284922  0.00920547  0.19143214  0.30000000  0.13416408   9297.71
  35 -1518.49361447 -1518.50392227    -0.01030780  0.08705604  0.11587469  0.01287497  0.19529428  0.30000000  0.13416408   9580.51
  36 -1518.50392227 -1518.50678785    -0.00286558  0.05535606  0.06775860  0.00752873  0.21028634  0.30000000  0.13416408   9855.25
  37 -1518.50678785 -1518.51029437    -0.00350652  0.03831273  0.05269130  0.00585459  0.12375832  0.16649634  0.07445943  10125.88
  38 -1518.51029437 -1518.51028101     0.00001336  0.01032613  0.01611297  0.00179033  0.04046494  0.05894951  0.02636302  10400.00
  39 -1518.51028101 -1518.50037176     0.00990925  0.01630351  0.01882977  0.00209220  0.16934744  0.30000000  0.13416408  10675.24
  40 -1518.50037176 -1518.50260827    -0.00223652  0.06144395  0.08413266  0.00934807  0.18805920  0.30000000  0.13416408  10954.86
  41 -1518.50260827 -1518.50693142    -0.00432315  0.03923709  0.05750121  0.00638902  0.21613045  0.30000000  0.13416408  11228.45
  42 -1518.50693142 -1518.50481112     0.00212030  0.03612590  0.04680507  0.00520056  0.17259689  0.30000000  0.13416408  11506.76
  43 -1518.50481112 -1518.50655852    -0.00174740  0.05477701  0.07227085  0.00803009  0.21630408  0.30000000  0.13416408  11781.69
  44 -1518.50655852 -1518.50644634     0.00011218  0.04690089  0.05217197  0.00579689  0.26119727  0.30000000  0.13416408  12060.45
  45 -1518.50644634 -1518.51031435    -0.00386802  0.03383784  0.04694177  0.00521575  0.16183908  0.19042427  0.08516032  12330.00
  46 -1518.51031435 -1518.51047811    -0.00016375  0.01015707  0.01511041  0.00167893  0.01985925  0.03214258  0.01437460  12603.08
  47 -1518.51047811 -1518.51053687    -0.00005876  0.00394296  0.00719125  0.00079903  0.04707705  0.06343554  0.02836924  12874.80
  48 -1518.51053687 -1518.51056784    -0.00003096  0.00661020  0.00735052  0.00081672  0.04048053  0.05113461  0.02286809  13147.30
  49 -1518.51056784 -1518.50109045     0.00947738  0.00467988  0.00680541  0.00075616  0.27118976  0.30000000  0.13416408  13419.14
  50 -1518.50109045 -1518.51050203    -0.00941157  0.06393773  0.06472435  0.00719159  0.24541518  0.25802926  0.11539419  13685.08
  51 -1518.51050203 -1518.51063949    -0.00013747  0.00651833  0.00718250  0.00079806  0.01950925  0.02261545  0.01011394  13959.62
  52 -1518.51063949 -1518.49615253     0.01448696  0.00168285  0.00233151  0.00025906  0.27331610  0.30000000  0.13416408  14233.26
  53 -1518.49615253 -1518.51049885    -0.01434632  0.08387607  0.10934938  0.01214993  0.20881185  0.27042891  0.12093949  14518.37
  54 -1518.51049885 -1518.51062025    -0.00012140  0.00668903  0.00768878  0.00085431  0.02110795  0.02399542  0.01073108  14791.99
  55 -1518.51062025 -1518.51065444    -0.00003419  0.00098769  0.00170688  0.00018965  0.00306168  0.00409732  0.00183238  15065.63
  56 -1518.51065444 -1518.51059996     0.00005448  0.00061628  0.00099289  0.00011032  0.00280901  0.00392727  0.00175633  15340.95
  57 -1518.51059996 -1518.50095309     0.00964687  0.00053141  0.00103218  0.00011469  0.26143622  0.30000000  0.13416408  15615.95
  58 -1518.50095309 -1518.51056798    -0.00961489  0.06291694  0.06340737  0.00704526  0.27728963  0.30000000  0.13416408  15878.56
  59 -1518.51056798 -1518.51054816     0.00001982  0.00235595  0.00323260  0.00035918  0.00613985  0.00659642  0.00295001  16154.80
  60 -1518.51054816 -1518.51054443     0.00000373  0.00084441  0.00129739  0.00014415  0.00397403  0.00591330  0.00264451  16427.19
  61 -1518.51054443 -1518.51054695    -0.00000252  0.00139009  0.00156237  0.00017360  0.00568635  0.00717160  0.00320724  16701.49
  62 -1518.51054695 -1518.51054708    -0.00000013  0.00032183  0.00055865  0.00006207  0.00199430  0.00206594  0.00092391  16973.65
  63 -1518.51054708 -1518.51054658     0.00000050  0.00016772  0.00023160  0.00002573  0.00062297  0.00071543  0.00031995  17245.91

 END OF GEOMETRY OPTIMIZATION.

 Current geometry (xyz format, in Angstrom)

    5
 KS-SCF000/DEF2-TZVP  ENERGY=-1518.51054658
 C          0.0001089736       -0.2558025083        0.0006495495
 Cl         1.4760743475        0.3142245316        0.7902940889
 F         -0.0006394210       -1.5750080299       -0.0003541590
 Cl        -0.0537864943        0.3145941309       -1.6740034267
 Cl        -1.4219778546        0.3146571068        0.8836788496

 **********************************************************************************************************************************

 Geometry written to block  1 of record 700


 **********************************************************************************************************************************
 DATASETS  * FILE   NREC   LENGTH (MB)   RECORD NAMES
              1      20      391.96       500      610      700      900      950      970     1000      129      960     1100   
                                          VAR    BASINP    GEOM    SYMINP    ZMAT    AOBASIS   BASIS     P2S    ABASIS      S 
                                         1400     1410     1200     1210     1080     1600     1650     1300     1700     1800   
                                           T        V       H0       H01     AOSYM     SMH    MOLCAS    ERIS     OPER     GRID   

              2       5        3.45       700     1000      520     1800     2100   
                                         GEOM     BASIS   MCVARS    GRID      RKS  

 PROGRAMS   *        TOTAL      OPTG    KS-SCF       INT
 CPU TIMES  *     17312.71  17245.90     20.61     45.48
 REAL TIME  *     17448.59 SEC
 DISK USED  *         1.67 GB
 **********************************************************************************************************************************


 PROGRAM * HESSIAN

 Computing numerical hessian using default procedure for command KS-SCF

 Using no symmetry in wavefunction calculations

 Running default procedure: KS-SCF000
 

 Recomputing wavefunction at reference geometry

 Numerically approximating hessian using central gradient differences

 Task list generated. Total number of displacements:     30

    5 tasks completed, CPU=22m 41s Elapsed=22m 41s
   10 tasks completed, CPU=45m 23s Elapsed=45m 24s
   15 tasks completed, CPU=1h 8m 0s Elapsed=1h 8m 0s
   20 tasks completed, CPU=1h 30m 31s Elapsed=1h 30m 31s
   25 tasks completed, CPU=1h 53m 10s Elapsed=1h 53m 11s
   30 tasks completed, CPU=2h 15m 46s Elapsed=2h 15m 47s

 Numerical KS-SCF000 hessian completed. CPU-time:  8146.60 sec, Elapsed:  8147.38 sec

 KS-SCF hessian saved to record  5300.2

 PROGRAM * FREQUENCIES (Calculation of harmonic vibrational spectra for KS-SCF)


 Permanent Dipole Moment [debye]
   1-  3    0.000370    0.304915    0.008068

 Dipole Moment Norm    0.3050222 [debye]

 Dipole Moment Derivatives [debye/ang]
                   1             2             3             4             5             6             7             8
         1     8.6017024     0.0035871     0.0006644    -3.1957322    -0.7200146    -1.3320349    -1.6801040     0.0006776
         2     0.0024641     6.5777655    -0.0047330    -0.6609704    -0.4378213    -0.3525642    -0.0016487    -5.2616804
         3    -0.0053769     0.0049582     8.6069979    -1.3343916    -0.3844010    -1.4174952     0.0002036     0.0022568
                   9            10            11            12            13            14            15
         1     0.0011611    -0.7025156     0.0261764    -0.1068464    -3.0215065     0.6895728     1.4370596
         2     0.0000638     0.0245532    -0.4388699     0.7542172     0.6366314    -0.4387853    -0.3961363
         3    -1.6829024    -0.1020817     0.8079591    -3.9148811     1.4421565    -0.4307832    -1.5882716

 Projecting out rotations and translations

   Low Vibration      Wavenumber
        Nr             [1/cm] 
        1                0.00
        2                0.00
        3                0.00
        4                0.00
        5                0.00
        6                0.00

     Vibration        Wavenumber
        Nr             [1/cm] 
        1              243.43
        2              243.47
        3              348.03
        4              402.49
        5              402.90
        6              539.64
        7              810.93
        8              813.17
        9             1151.72

 FREQUENCIES * CALCULATION OF NORMAL MODES FOR KS-SCF


 Atomic Coordinates

  Nr  Atom  Charge       X              Y              Z

   1   C     6.00    0.000205930   -0.483396683    0.001227471
   2   CL   17.00    2.789376256    0.593798306    1.493439386
   3   F     9.00   -0.001208331   -2.976333821   -0.000669264
   4   CL   17.00   -0.101641743    0.594496748   -3.163408008
   5   CL   17.00   -2.687148700    0.594615755    1.669911008

 Gradient norm at reference geometry: 0.12686D-02

 ?WARNING: GRADIENT NORM NOT ZERO!

 Normal Modes

                              1 A         2 A         3 A         4 A         5 A  
 Wavenumbers [cm-1]          243.43      243.47      348.03      402.49      402.90
 Intensities [km/mol]          0.03        0.03        0.15        0.44        0.43
 Intensities [relative]        0.01        0.01        0.05        0.15        0.15
           CX1              0.02127    -0.03132    -0.00018    -0.00443    -0.01630
           CY1             -0.00002     0.00002     0.09396    -0.00043    -0.00005
           CZ1             -0.03106    -0.02127     0.00026    -0.01616     0.00421
           CLX2            -0.04223    -0.05810     0.06646    -0.05571    -0.04206
           CLY2            -0.00425     0.03998    -0.02974    -0.04155    -0.04491
           CLZ2             0.09267    -0.01879     0.03552    -0.00808    -0.04264
           FX3              0.05124    -0.07536     0.00045     0.03897     0.14822
           FY3              0.00002     0.00011     0.10368    -0.00060    -0.00011
           FZ3             -0.07539    -0.05132     0.00029     0.14819    -0.03898
           CLX4            -0.06178     0.08136    -0.00243     0.00339     0.02600
           CLY4            -0.03247    -0.02372    -0.02938     0.05992    -0.01367
           CLZ4            -0.04700    -0.03839    -0.07561    -0.07600     0.01667
           CLX5             0.06887     0.02843    -0.06421     0.03267    -0.05887
           CLY5             0.03672    -0.01634    -0.02946    -0.01789     0.05865
           CLZ5             0.00595     0.09236     0.03984     0.00911     0.04570

                              6 A         7 A         8 A         9 A  
 Wavenumbers [cm-1]          539.64      810.93      813.17     1151.72
 Intensities [km/mol]          3.18      296.56      296.21      213.39
 Intensities [relative]        1.07      100.00       99.88       71.95
           CX1             -0.00019     0.00587     0.27185     0.00029
           CY1              0.11457    -0.00033    -0.00010     0.23242
           CZ1             -0.00011     0.27189    -0.00590     0.00030
           CLX2            -0.05466    -0.01281    -0.03217    -0.00007
           CLY2            -0.03608    -0.00285    -0.00518    -0.00196
           CLZ2            -0.02915    -0.01663    -0.01173    -0.00003
           FX3              0.00002    -0.00084    -0.03744    -0.00010
           FY3              0.12663     0.00009     0.00030    -0.13599
           FZ3              0.00040    -0.03747     0.00087    -0.00013
           CLX4             0.00198    -0.00111    -0.00977    -0.00000
           CLY4            -0.03589     0.00589     0.00004    -0.00196
           CLZ4             0.06163    -0.03867    -0.00016     0.00000
           CLX5             0.05273     0.01236    -0.03101     0.00002
           CLY5            -0.03615    -0.00298     0.00501    -0.00196
           CLZ5            -0.03265    -0.01764     0.01344    -0.00001


 Normal Modes of low/zero frequencies

                                  1           2           3           4           5
 Wavenumbers [cm-1]            0.00        0.00        0.00        0.00        0.00
 Intensities [km/mol]          0.00        0.00        0.00        0.00        0.00
 Intensities [relative]        0.00        0.00        0.00        0.00        0.00
           CX1              0.00052     0.00238     0.00230    -0.00127    -0.00077
           CY1              0.03738    -0.00428     0.07209     0.01649     0.02172
           CZ1             -0.02832    -0.03010    -0.00734     0.07629     0.00947
           CLX2             0.02435    -0.02351     0.00181     0.00361    -0.04954
           CLY2             0.02230     0.09844     0.06931     0.06054     0.04520
           CLZ2            -0.06198    -0.05587    -0.00442     0.03537     0.08368
           FX3             -0.04255     0.07714     0.02252     0.01207     0.01209
           FY3              0.03736    -0.00434     0.07211     0.01644     0.02170
           FZ3              0.02698     0.00175    -0.04977     0.12492     0.02471
           CLX4             0.00805    -0.04358    -0.02393    -0.02962     0.08539
           CLY4            -0.03105    -0.04776     0.12513    -0.04579     0.00179
           CLZ4            -0.05187    -0.04343     0.01158     0.05599    -0.00009
           CLX5             0.02498    -0.02277     0.00278     0.00487    -0.05466
           CLY5             0.12081    -0.06356     0.02188     0.03464     0.01814
           CLZ5            -0.04282    -0.03231     0.02587     0.07444    -0.07501

                                  6
 Wavenumbers [cm-1]            0.00
 Intensities [km/mol]          0.00
 Intensities [relative]        0.00
           CX1              0.08754
           CY1             -0.00157
           CZ1              0.00236
           CLX2             0.07966
           CLY2             0.01766
           CLZ2             0.00321
           FX3              0.10432
           FY3             -0.00158
           FZ3              0.00313
           CLX4             0.08162
           CLY4            -0.00322
           CLZ4             0.00199
           CLX5             0.07958
           CLY5            -0.01915
           CLZ5             0.00090


 Frequencies dumped to record   5400.2

 Zero point energy:  0.01129008 [H]     2477.89 [1/CM]       29.64 [KJ/MOL]

 Recomputing wavefunction at initial geometry


 **********************************************************************************************************************************
 DATASETS  * FILE   NREC   LENGTH (MB)   RECORD NAMES
              1      20      387.29       500      610      700      900      950      970     1000      129      960     1100   
                                          VAR    BASINP    GEOM    SYMINP    ZMAT    AOBASIS   BASIS     P2S    ABASIS      S 
                                         1400     1410     1200     1210     1080     1600     1650     1300     1700     1800   
                                           T        V       H0       H01     AOSYM     SMH    MOLCAS    ERIS     OPER     GRID   

              2       9        4.32       700     1000      520     1800     2100      701     5300     5450     5400   
                                         GEOM     BASIS   MCVARS    GRID      RKS     GEOM     HESS     NMOD     FREQ   

 PROGRAMS   *        TOTAL      FREQ      OPTG    KS-SCF       INT
 CPU TIMES  *     25473.70   8160.94  17245.90     20.61     45.48
 REAL TIME  *     25662.04 SEC
 DISK USED  *         1.67 GB
 **********************************************************************************************************************************

 Density functional group M06=XC-M06
 Functional: XC-M06(via MFM 1.6)                                               Gradient terms: 1
 Use libxcgrid:  F
 Use grid at  1800.2
 

 Exact exchange will be calculated, factor:  0.2700

 Functional: XC-M06                    Factor:  1.0000
 
  141995 words reserved for DFT integration

 PROGRAM * RKS-SCF (Restricted closed shell Kohn-Sham)     Authors: W. Meyer, H.-J. Werner, P.J. Knowles, 1993

 NUMBER OF ELECTRONS:      33+   33-    SPACE SYMMETRY=1    SPIN SYMMETRY: Singlet 
 CONVERGENCE THRESHOLDS:    1.00E-07 (Density)    1.00E-06 (Energy)
 MAX. NUMBER OF ITERATIONS:       60
 INTERPOLATION TYPE:            DIIS
 INTERPOLATION STEPS:              2 (START)      1 (STEP)
 LEVEL SHIFTS:                  0.00 (CLOSED)  0.00 (OPEN) 



 Use fine grid record 1800.2 for energy threshold  1.0D-06
 Molecular orbitals read from record     2100.2  Type=RKS/CANONICAL (state 1.1)

 Molecular orbital dump at record        2101.2

 ITERATION    DDIFF          GRAD             ENERGY        2-EL.EN.            DIPOLE MOMENTS         DIIS   ORB.
    1      0.000D+00      0.000D+00     -1518.51063301   2034.347952    0.00035    0.11961    0.00277    0    start
    2      0.000D+00      0.625D-07     -1518.51063301   2034.347901    0.00036    0.11960    0.00276    1    diag
    3      0.773D-07      0.101D-06     -1518.51063301   2034.347952    0.00036    0.11961    0.00276    2    diag
    4      0.432D-07      0.849D-08     -1518.51063301   2034.347924    0.00036    0.11960    0.00277    0    orth

 Final occupancy:  33

 !RKS STATE  1.1 Energy             -1518.510633010445
 Nuclear energy                       367.60145534
 One-electron energy                -2829.16291040
 Two-electron energy                 1017.17396220
 SCF exchange energy                  -97.85492439     Factor= 0.2700
 Density functional                   -74.12314014     XC-M06=-74.12314014
 Virial quotient                       -1.00180236
 !RKS STATE  1.1 Dipole moment          0.00035583     0.11960437     0.00276681
 Dipole moment /Debye                   0.00090438     0.30398407     0.00703206

 Orbital energies:

         1.1          2.1          3.1          4.1          5.1          6.1          7.1          8.1          9.1         10.1
   -101.747601  -101.747579  -101.747361   -24.840840   -10.508824    -9.618962    -9.618938    -9.618705    -7.330512    -7.330489

        11.1         12.1         13.1         14.1         15.1         16.1         17.1         18.1         19.1         20.1
     -7.330258    -7.320295    -7.320269    -7.320222    -7.320198    -7.320038    -7.319968    -1.336196    -0.964115    -0.881056

        21.1         22.1         23.1         24.1         25.1         26.1         27.1         28.1         29.1         30.1
     -0.880795    -0.694506    -0.579577    -0.569876    -0.569823    -0.449721    -0.449700    -0.388051    -0.375763    -0.375666

        31.1         32.1         33.1         34.1         35.1
     -0.346219    -0.346143    -0.331988    -0.046243     0.007385


 HOMO     33.1    -0.331988 =      -9.0339eV
 LUMO     34.1    -0.046243 =      -1.2583eV
 LUMO-HOMO         0.285746 =       7.7755eV


 **********************************************************************************************************************************
 DATASETS  * FILE   NREC   LENGTH (MB)   RECORD NAMES
              1      20      387.29       500      610      700      900      950      970     1000      129      960     1100   
                                          VAR    BASINP    GEOM    SYMINP    ZMAT    AOBASIS   BASIS     P2S    ABASIS      S 
                                         1400     1410     1200     1210     1080     1600     1650     1300     1700     1800   
                                           T        V       H0       H01     AOSYM     SMH    MOLCAS    ERIS     OPER     GRID   

              2      10        7.41       700     1000      520     1800     2100      701     5300     5450     5400     2101   
                                         GEOM     BASIS   MCVARS    GRID      RKS     GEOM     HESS     NMOD     FREQ      RKS  

 PROGRAMS   *        TOTAL    KS-SCF      FREQ      OPTG    KS-SCF       INT
 CPU TIMES  *     25480.89      7.14   8160.94  17245.90     20.61     45.48
 REAL TIME  *     25669.46 SEC
 DISK USED  *         1.67 GB
 **********************************************************************************************************************************


 PROGRAM * SURF (Surface generation)   Authors: G. Rauhut 2004, T. Hrenar 2005, M. Neff 2012, D. Oschetzki 2013

 Freezing grid

 Reference geometry in SURF calculation

   1  C     6.00     0.001227471    0.000205930   -0.483396683
   2  CL   17.00     1.493439386    2.789376256    0.593798306
   3  F     9.00    -0.000669264   -0.001208331   -2.976333821
   4  CL   17.00    -3.163408008   -0.101641743    0.594496748
   5  CL   17.00     1.669911008   -2.687148700    0.594615755


 The phase of the following normal coordinates was changed:
  1  2

 Information about detected symmetry elements:

 Detected point group: C1 

 Calculating 1D potential

 1D:   9  Points:   6 Conv: 0.00018324 0.00018324
 1D:   8  Points:   6 Conv: 0.00011502 0.00011502
 1D:   7  Points:   6 Conv: 0.00011437 0.00011437
 1D:   6  Points:   6 Conv: 0.00006647 0.00006647
 1D:   5  Points:   6 Conv: 0.00004510 0.00004510
 1D:   4  Points:   6 Conv: 0.00004511 0.00004511
 1D:   3  Points:   6 Conv: 0.00003688 0.00003688
 1D:   2  Points:   6 Conv: 0.00002281 0.00002281
 1D:   1  Points:   6 Conv: 0.00002320 0.00002320

 The determined shift and scalnm parameters are:

 scalnm,mode= 1,sfac=1.000,shift= 0
 scalnm,mode= 2,sfac=1.000,shift= 0
 scalnm,mode= 3,sfac=1.000,shift= 0
 scalnm,mode= 4,sfac=1.000,shift= 0
 scalnm,mode= 5,sfac=1.000,shift= 0
 scalnm,mode= 6,sfac=1.000,shift= 0
 scalnm,mode= 7,sfac=1.000,shift= 0
 scalnm,mode= 8,sfac=1.000,shift= 0
 scalnm,mode= 9,sfac=1.000,shift= 0

 Calculating 2D coupling potential

 2D:   9   8  Points:  16 Conv: 0.00000152 0.00000155
 2D:   9   7  Points:  16 Conv: 0.00000151 0.00000154
 2D:   9   6  Points:  16 Conv: 0.00000072 0.00000073
 2D:   9   5  Points:  16 Conv: 0.00000010 0.00000011
 2D:   9   4  Points:  16 Conv: 0.00000010 0.00000011
 2D:   9   3  Points:  16 Conv: 0.00000041 0.00000042
 2D:   9   2  Points:  16 Conv: 0.00000004 0.00000004
 2D:   9   1  Points:  16 Conv: 0.00000004 0.00000004
 2D:   8   7  Points:  16 Conv: 0.00000262 0.00000264
 2D:   8   6  Points:  16 Conv: 0.00000152 0.00000153
 2D:   8   5  Points:  16 Conv: 0.00000029 0.00000024
 2D:   8   4  Points:  16 Conv: 0.00000065 0.00000065
 2D:   8   3  Points:  16 Conv: 0.00000064 0.00000064
 2D:   8   2  Points:  16 Conv: 0.00000007 0.00000007
 2D:   8   1  Points:  16 Conv: 0.00000006 0.00000005
 2D:   7   6  Points:  16 Conv: 0.00000151 0.00000152
 2D:   7   5  Points:  16 Conv: 0.00000020 0.00000020
 2D:   7   4  Points:  16 Conv: 0.00000072 0.00000072
 2D:   7   3  Points:  16 Conv: 0.00000056 0.00000056
 2D:   7   2  Points:  16 Conv: 0.00000009 0.00000009
 2D:   7   1  Points:  16 Conv: 0.00000021 0.00000020
 2D:   6   5  Points:  16 Conv: 0.00000053 0.00000053
 2D:   6   4  Points:  16 Conv: 0.00000053 0.00000053
 2D:   6   3  Points:  16 Conv: 0.00000033 0.00000033
 2D:   6   2  Points:  16 Conv: 0.00000005 0.00000005
 2D:   6   1  Points:  16 Conv: 0.00000004 0.00000004
 2D:   5   4  Points:  16 Conv: 0.00000027 0.00000027
 2D:   5   3  Points:  16 Conv: 0.00000009 0.00000009
 2D:   5   2  Points:  16 Conv: 0.00000008 0.00000008
 2D:   5   1  Points:  16 Conv: 0.00000017 0.00000017
 2D:   4   3  Points:  16 Conv: 0.00000009 0.00000009
 2D:   4   2  Points:  16 Conv: 0.00000009 0.00000009
 2D:   4   1  Points:  16 Conv: 0.00000018 0.00000018
 2D:   3   2  Points:  16 Conv: 0.00000015 0.00000015
 2D:   3   1  Points:  16 Conv: 0.00000016 0.00000016
 2D:   2   1  Points:  16 Conv: 0.00000020 0.00000020

 Calculating 3D coupling potential

 3D:   9   8   7  Points:    8 Conv: 0.00000005
 3D:   9   8   6  Points:    8 Conv: 0.00000005
 3D:   9   8   5  Points:    8 Conv: 0.00000007
 3D:   9   8   4  Points:    8 Conv: 0.00000002
 3D:   9   8   3  Points:    8 Conv: 0.00000001
 3D:   9   8   2  Points:    8 Conv: 0.00000026
 3D:   9   8   1  Points:    8 Conv: 0.00000017
 3D:   9   7   6  Points:    8 Conv: 0.00000004
 3D:   9   7   5  Points:    8 Conv: 0.00000002
 3D:   9   7   4  Points:    8 Conv: 0.00000007
 3D:   9   7   3  Points:    8 Conv: 0.00000005
 3D:   9   7   2  Points:    8 Conv: 0.00000019
 3D:   9   7   1  Points:    8 Conv: 0.00000026
 3D:   9   6   5  Points:    8 Conv: 0.00000000
 3D:   9   6   4  Points:    8 Conv: 0.00000001
 3D:   9   6   3  Points:    8 Conv: 0.00000047
 3D:   9   6   2  Points:    8 Conv: 0.00000001
 3D:   9   6   1  Points:    8 Conv: 0.00000002
 3D:   9   5   4  Points:    8 Conv: 0.00000000
 3D:   9   5   3  Points:    8 Conv: 0.00000000
 3D:   9   5   2  Points:    8 Conv: 0.00000003
 3D:   9   5   1  Points:    8 Conv: 0.00000003
 3D:   9   4   3  Points:    8 Conv: 0.00000001
 3D:   9   4   2  Points:    8 Conv: 0.00000003
 3D:   9   4   1  Points:    8 Conv: 0.00000003
 3D:   9   3   2  Points:    8 Conv: 0.00000002
 3D:   9   3   1  Points:    8 Conv: 0.00000002
 3D:   9   2   1  Points:    8 Conv: 0.00000000
 
 3D:   8   7   6  Points:    8 Conv: 0.00000010
 3D:   8   7   5  Points:    8 Conv: 0.00000100
 3D:   8   7   4  Points:    8 Conv: 0.00000020
 3D:   8   7   3  Points:    8 Conv: 0.00000003
 3D:   8   7   2  Points:    8 Conv: 0.00000001
 3D:   8   7   1  Points:    8 Conv: 0.00000002
 3D:   8   6   5  Points:    8 Conv: 0.00000098
 3D:   8   6   4  Points:    8 Conv: 0.00000023
 3D:   8   6   3  Points:    8 Conv: 0.00000003
 3D:   8   6   2  Points:    8 Conv: 0.00000016
 3D:   8   6   1  Points:    8 Conv: 0.00000010
 3D:   8   5   4  Points:    8 Conv: 0.00000028
 3D:   8   5   3  Points:    8 Conv: 0.00000025
 3D:   8   5   2  Points:    8 Conv: 0.00000001
 3D:   8   5   1  Points:    8 Conv: 0.00000002
 3D:   8   4   3  Points:    8 Conv: 0.00000006
 3D:   8   4   2  Points:    8 Conv: 0.00000003
 3D:   8   4   1  Points:    8 Conv: 0.00000001
 3D:   8   3   2  Points:    8 Conv: 0.00000011
 3D:   8   3   1  Points:    8 Conv: 0.00000009
 3D:   8   2   1  Points:    8 Conv: 0.00000001
 3D:   7   6   5  Points:    8 Conv: 0.00000024
 3D:   7   6   4  Points:    8 Conv: 0.00000098
 3D:   7   6   3  Points:    8 Conv: 0.00000004
 3D:   7   6   2  Points:    8 Conv: 0.00000012
 3D:   7   6   1  Points:    8 Conv: 0.00000017
 3D:   7   5   4  Points:    8 Conv: 0.00000013
 3D:   7   5   3  Points:    8 Conv: 0.00000006
 
 3D:   7   5   2  Points:    8 Conv: 0.00000003
 3D:   7   5   1  Points:    8 Conv: 0.00000001
 3D:   7   4   3  Points:    8 Conv: 0.00000025
 3D:   7   4   2  Points:    8 Conv: 0.00000000
 3D:   7   4   1  Points:    8 Conv: 0.00000001
 3D:   7   3   2  Points:    8 Conv: 0.00000006
 3D:   7   3   1  Points:    8 Conv: 0.00000007
 3D:   7   2   1  Points:    8 Conv: 0.00000001
 3D:   6   5   4  Points:    8 Conv: 0.00000001
 3D:   6   5   3  Points:    8 Conv: 0.00000000
 3D:   6   5   2  Points:    8 Conv: 0.00000001
 3D:   6   5   1  Points:    8 Conv: 0.00000001
 3D:   6   4   3  Points:    8 Conv: 0.00000000
 3D:   6   4   2  Points:    8 Conv: 0.00000001
 3D:   6   4   1  Points:    8 Conv: 0.00000001
 3D:   6   3   2  Points:    8 Conv: 0.00000001
 3D:   6   3   1  Points:    8 Conv: 0.00000001
 3D:   6   2   1  Points:    8 Conv: 0.00000000
 3D:   5   4   3  Points:    8 Conv: 0.00000000
 3D:   5   4   2  Points:    8 Conv: 0.00000026
 3D:   5   4   1  Points:    8 Conv: 0.00000005
 3D:   5   3   2  Points:    8 Conv: 0.00000011
 3D:   5   3   1  Points:    8 Conv: 0.00000013
 3D:   5   2   1  Points:    8 Conv: 0.00000004
 3D:   4   3   2  Points:    8 Conv: 0.00000014
 3D:   4   3   1  Points:    8 Conv: 0.00000012
 3D:   4   2   1  Points:    8 Conv: 0.00000006
 3D:   3   2   1  Points:    8 Conv: 0.00000001

 Grid calculation completed

 Formal number of grid points:    124048
 Actual number of grid points:      1482 Time (sec):      93808.7
 Number of 1D grid points:           234 Time (sec):      14832.8
 Number of 2D grid points:           576 Time (sec):      36210.5
 Number of 3D grid points:           672 Time (sec):      42765.4

 CPU-Time for SURF calculation:      93879.0 sec.


 **********************************************************************************************************************************
 DATASETS  * FILE   NREC   LENGTH (MB)   RECORD NAMES
              1      20      393.39       500      610      700      900      950      970     1000      129      960     1100   
                                          VAR    BASINP    GEOM    SYMINP    ZMAT    AOBASIS   BASIS     P2S    ABASIS      S 
                                         1400     1410     1200     1210     1080     1600     1650     1300     1700     1800   
                                           T        V       H0       H01     AOSYM     SMH    MOLCAS    ERIS     OPER     GRID   

              2      13       86.45       700     1000      520     1800     2100      701     5300     5450     5400     2101   
                                         GEOM     BASIS   MCVARS    GRID      RKS     GEOM     HESS     NMOD     FREQ      RKS  
                                         5600     5650     5550   
                                         SURF    DIPOLE   VIBINFO    

 PROGRAMS   *        TOTAL      SURF       INT    KS-SCF       INT    KS-SCF       INT    KS-SCF       INT    KS-SCF       INT
 CPU TIMES  *    119359.96     19.50     45.09     17.67     45.09     17.73     45.11     17.72     45.09     17.72     45.21
 REAL TIME  *    122119.21 SEC
 DISK USED  *         1.67 GB
 **********************************************************************************************************************************


 PROGRAM * POLY (Transformation of PES grid representation to an analytic representation)   Authors: G. Rauhut 2008, M. Neff 2010, B. Ziegler 2019
 
 Reading potential information from:      5600.2
 Reading dipole information from:         5650.2
 
 Watson correction term has NOT been added to the potential.

 Time to compute the number of basis functions:    0.4 sec
 Number of basis functions:  5

        dim  chi_av       chi_max      time in sec      Surface

 Energy 1D   0.1856E-17   0.7330E-17     0.0            1
        2D   0.4458E-16   0.4830E-15     0.0            1  3
        3D   0.5903E-16   0.1874E-14     0.4            4  3  2

 Dipole 1D   0.5798E-11   0.3991E-10     0.0            6
        2D   0.7890E-10   0.6334E-09     0.1            3  8
        3D   0.3487E-12   0.1776E-11     1.2            9  8  6
 
 Harmonic frequencies obtained from polynomial fit

   Mode        Ref.         Fit

   9 A       1151.72     1150.51
   8 A        813.17      812.14
   7 A        810.93      809.10
   6 A        539.64      538.70
   5 A        402.90      402.55
   4 A        402.49      402.47
   3 A        348.03      346.66
   2 A        243.47      241.89
   1 A        243.43      244.06
 

 CPU-Time for POLY calculation:          2.3 sec.


 **********************************************************************************************************************************
 DATASETS  * FILE   NREC   LENGTH (MB)   RECORD NAMES
              1      20      393.39       500      610      700      900      950      970     1000      129      960     1100   
                                          VAR    BASINP    GEOM    SYMINP    ZMAT    AOBASIS   BASIS     P2S    ABASIS      S 
                                         1400     1410     1200     1210     1080     1600     1650     1300     1700     1800   
                                           T        V       H0       H01     AOSYM     SMH    MOLCAS    ERIS     OPER     GRID   

              2      15       86.93       700     1000      520     1800     2100      701     5300     5450     5400     2101   
                                         GEOM     BASIS   MCVARS    GRID      RKS     GEOM     HESS     NMOD     FREQ      RKS  
                                         5600     5650     5550     5750     5770   
                                         SURF    DIPOLE   VIBINFO   POLY      MU  

 PROGRAMS   *        TOTAL      POLY    KS-SCF       INT    KS-SCF       INT    KS-SCF       INT    KS-SCF       INT    KS-SCF
 CPU TIMES  *    119362.29      2.28     17.70     45.09     17.67     45.09     17.73     45.11     17.72     45.09     17.72
 REAL TIME  *    122121.75 SEC
 DISK USED  *         1.67 GB
 **********************************************************************************************************************************


 PROGRAM * VPT2 (2nd Order Vibrational Perturbation Theory)   Authors: R. Ramakrishnan, G. Rauhut 2015, B. Schroeder 2017

 Reading potential from record        5600.2

 Asymmetric top molecule


 Non-zero Coriolis zeta constants

   Modes        a             b             c

   9  8     -0.859924     -0.018813      0.001108
   9  7     -0.018640      0.860135     -0.000995
   9  6      0.000805     -0.001493      0.000001
   9  5      0.423416      0.111102     -0.000588
   9  4      0.111736     -0.422852      0.000235
   9  3      0.001872     -0.000136     -0.000002
   9  2      0.103926     -0.070915      0.000020
   9  1     -0.070698     -0.104605     -0.000157
   8  7     -0.001198     -0.000426     -0.954033
   8  6      0.356582      0.007665      0.000698
   8  5     -0.006724     -0.030538     -0.041144
   8  4      0.028683     -0.004508      0.172107
   8  3      0.331490      0.006876     -0.000695
   8  2      0.034392     -0.043207     -0.136518
   8  1      0.043935      0.035378     -0.191708
   7  6      0.007630     -0.356461     -0.000635
   7  5      0.029987     -0.005473     -0.172207
   7  4      0.005618      0.031319     -0.041523
   7  3      0.007132     -0.331220     -0.000906
   7  2      0.043639      0.034559      0.191469
   7  1     -0.034719      0.043184     -0.136648
   6  5     -0.235963     -0.062244      0.000374
   6  4     -0.061812      0.236394      0.000029
   6  3     -0.000900     -0.000557      0.000004
   6  2     -0.180919      0.124358      0.002011
   6  1      0.122668      0.181952     -0.001030
   5  4     -0.001988     -0.001338     -0.236298
   5  3      0.586157      0.153956     -0.001243
   5  2      0.157280     -0.337031     -0.571487
   5  1      0.335758      0.156789     -0.497616
   4  3      0.154049     -0.585752      0.000994
   4  2      0.337430      0.157087      0.497559
   4  1     -0.158286      0.335105     -0.571670
   3  2     -0.367838      0.250855      0.000001
   3  1      0.250930      0.369460     -0.001731
   2  1     -0.000211      0.000021      0.474178
 

 VPT2 Vibration-rotation interaction constants (in cm-1)

                       Harmonic                                Coriolis                                Anharmonic
           _________________________________       _________________________________       _________________________________

 Mode           A           B           C               A           B           C               A           B           C

   9       -0.000002   -0.000002   -0.000000       -0.000069   -0.000069   -0.000000        0.000155    0.000147   -0.000013
   8       -0.000000   -0.000000   -0.000000        0.000041   -0.000000   -0.000003        0.000248    0.000099    0.000161
   7       -0.000000   -0.000000   -0.000000       -0.000000    0.000040   -0.000003        0.000091    0.000248    0.000151
   6       -0.000042   -0.000042   -0.000015       -0.000004   -0.000004   -0.000000        0.000125    0.000119    0.000098
   5       -0.000011   -0.000019   -0.000007       -0.000004   -0.000023   -0.000048        0.000039    0.000087    0.000020
   4       -0.000019   -0.000011   -0.000007       -0.000023   -0.000004   -0.000049        0.000086    0.000040    0.000020
   3       -0.000003   -0.000003   -0.000034        0.000008    0.000008    0.000000        0.000047    0.000026    0.000053
   2       -0.000044   -0.000046   -0.000005        0.000030    0.000028    0.000053       -0.000026    0.000051    0.000030
   1       -0.000046   -0.000044   -0.000005        0.000028    0.000030    0.000053        0.000039   -0.000013    0.000031


                          Total
           _________________________________

 Mode           A           B           C

   9        0.000084    0.000076   -0.000013
   8        0.000288    0.000099    0.000158
   7        0.000091    0.000288    0.000148
   6        0.000079    0.000073    0.000084
   5        0.000025    0.000044   -0.000036
   4        0.000044    0.000026   -0.000035
   3        0.000053    0.000031    0.000019
   2       -0.000040    0.000032    0.000079
   1        0.000021   -0.000026    0.000080


 VPT2 Quartic centrifugal distortion constants (in cm-1)

                  Tau               Tau'

    AAAA    -0.621222E-07     -0.621222E-07
    BBBB    -0.621320E-07     -0.621320E-07
    CCCC    -0.190332E-07     -0.190332E-07
    BBAA     0.234675E-07     -0.620941E-07
    CCAA    -0.136183E-07     -0.300105E-07
    CCBB    -0.136993E-07     -0.300517E-07


 VPT2 Quartic centrifugal distortion constants in the Nielsen formalism (cm-1)


    DJ       0.948748E-08
    DK       0.199188E-08
    DJK      0.405119E-08
    R5      -0.658390E-09
    R6      -0.329090E-09
    dJ       0.269368E-08


 VPT2 State-dependent vibrationally averaged rotational constants (in cm-1) 

   Ref.            0.08212     0.08206     0.05731

   |000000000>     0.08180     0.08174     0.05707
   |000000001>     0.08171     0.08166     0.05708
   |000000002>     0.08163     0.08159     0.05710
   |000000010>     0.08151     0.08164     0.05691
   |000000011>     0.08142     0.08156     0.05693
   |000000020>     0.08122     0.08154     0.05675
   |000000100>     0.08170     0.08145     0.05692
   |000000101>     0.08162     0.08137     0.05694
   |000000110>     0.08142     0.08135     0.05676
   |000000200>     0.08161     0.08116     0.05677
   |000001000>     0.08172     0.08167     0.05699
   |000001001>     0.08163     0.08159     0.05700
   |000001010>     0.08143     0.08157     0.05683
   |000001100>     0.08163     0.08138     0.05684
   |000002000>     0.08164     0.08159     0.05690
   |000010000>     0.08177     0.08169     0.05711
   |000010001>     0.08169     0.08162     0.05712
   |000010010>     0.08148     0.08160     0.05695
   |000010100>     0.08168     0.08141     0.05696
   |000011000>     0.08169     0.08162     0.05702
   |000020000>     0.08175     0.08165     0.05714
   |000100000>     0.08175     0.08171     0.05711
   |000100001>     0.08167     0.08164     0.05712
   |000100010>     0.08146     0.08161     0.05695
   |000100100>     0.08166     0.08142     0.05696
   |000101000>     0.08167     0.08164     0.05702
   |000110000>     0.08173     0.08167     0.05714
   |000200000>     0.08171     0.08169     0.05714
   |001000000>     0.08174     0.08171     0.05705
   |001000001>     0.08166     0.08163     0.05706
   |001000010>     0.08145     0.08161     0.05689
   |001000100>     0.08165     0.08142     0.05690
   |001001000>     0.08166     0.08163     0.05697
   |001010000>     0.08172     0.08166     0.05709
   |001100000>     0.08170     0.08168     0.05709
   |002000000>     0.08169     0.08168     0.05703
   |010000000>     0.08183     0.08171     0.05699
   |010000001>     0.08175     0.08163     0.05700
   |010000010>     0.08155     0.08161     0.05683
   |010000100>     0.08174     0.08142     0.05684
   |010001000>     0.08176     0.08163     0.05691
   |010010000>     0.08181     0.08166     0.05703
   |010100000>     0.08179     0.08168     0.05703
   |011000000>     0.08178     0.08167     0.05697
   |020000000>     0.08187     0.08167     0.05691
   |100000000>     0.08177     0.08177     0.05699
   |100000001>     0.08169     0.08169     0.05700
   |100000010>     0.08149     0.08167     0.05683
   |100000100>     0.08168     0.08148     0.05684
   |100001000>     0.08170     0.08169     0.05691
   |100010000>     0.08175     0.08172     0.05703
   |100100000>     0.08173     0.08174     0.05703
   |101000000>     0.08172     0.08173     0.05697
   |110000000>     0.08181     0.08173     0.05691
   |200000000>     0.08175     0.08179     0.05691


 VPT2 zero-point vibrational energy (in cm^-1)

 Harmonic:        2474.03845
 Anharmonic:        -2.36371
 Kinetic:           -0.02225
 Total:           2471.65249

 Results of VPT2 calculation (Frequencies in cm-1)


 Fundamentals

       Mode           Harmonic    Anharmonic     Intensity
       9^1 A           1150.51       1124.35        204.97
       8^1 A            812.14        813.25        192.89
       7^1 A            809.10        808.35         55.09
       6^1 A            538.70        537.60          2.62
       5^1 A            402.55        399.95          4.10
       4^1 A            402.47        399.62          4.43
       3^1 A            346.66        345.81          0.12
       1^1 A            244.06        242.43          0.02
       2^1 A            241.89        240.47          0.03


 Overtones

       Mode           Harmonic    Anharmonic     Intensity
       9^2 A           2301.03       2224.61          4.15
       8^2 A           1624.28       1627.48          1.20
       7^2 A           1618.19       1613.99          1.12
       6^2 A           1077.39       1074.66          0.04
       5^2 A            805.10        798.75        155.34
       4^2 A            804.94        797.09        142.48
       3^2 A            693.33        691.75          0.02
       1^2 A            488.11        484.66          0.00
       2^2 A            483.78        480.64          0.00


 Combination bands

       Mode           Harmonic    Anharmonic     Intensity
  8^1  9^1 A           1962.65       1939.24          0.01
  7^1  9^1 A           1959.61       1932.91          0.01
  6^1  9^1 A           1689.21       1660.99          0.00
  7^1  8^1 A           1621.24       1623.01          1.18
  5^1  9^1 A           1553.06       1521.26          0.02
  4^1  9^1 A           1552.98       1520.81          0.02
  3^1  9^1 A           1497.18       1471.20          0.00
  1^1  9^1 A           1394.57       1366.93          0.11
  2^1  9^1 A           1392.40       1364.99          0.11
  6^1  8^1 A           1350.84       1350.63          0.70
  6^1  7^1 A           1347.79       1344.09          0.69
  4^1  8^1 A           1214.61       1218.70          0.22
  5^1  8^1 A           1214.69       1216.62          0.32
  5^1  7^1 A           1211.65       1209.70          0.23
  4^1  7^1 A           1211.56       1206.91          0.34
  3^1  8^1 A           1158.80       1158.53          0.16
  3^1  7^1 A           1155.76       1152.98          3.12
  1^1  8^1 A           1056.20       1054.95          0.12
  2^1  8^1 A           1054.03       1053.56          0.24
  1^1  7^1 A           1053.15       1049.67          0.21
  2^1  7^1 A           1050.99       1047.48          0.16
  5^1  6^1 A            941.25        941.11          3.10
  4^1  6^1 A            941.17        940.51          2.99
  3^1  6^1 A            885.36        882.90          0.05
  4^1  5^1 A            805.02        792.04        152.61
  1^1  6^1 A            782.75        779.29          3.10
  2^1  6^1 A            780.59        777.34          2.56
  3^1  5^1 A            749.21        745.49          1.01
  3^1  4^1 A            749.13        745.18          1.11
  1^1  5^1 A            646.61        642.14          0.00
  1^1  4^1 A            646.53        641.81          0.00
  2^1  5^1 A            644.44        640.22          0.00
  2^1  4^1 A            644.36        639.89          0.00
  1^1  3^1 A            590.72        588.16          0.03
  2^1  3^1 A            588.55        586.31          0.04
  1^1  2^1 A            485.95        483.21          0.00

 CPU-Time for VPT2 calculation:          0.0 sec.


 **********************************************************************************************************************************
 DATASETS  * FILE   NREC   LENGTH (MB)   RECORD NAMES
              1      20      393.39       500      610      700      900      950      970     1000      129      960     1100   
                                          VAR    BASINP    GEOM    SYMINP    ZMAT    AOBASIS   BASIS     P2S    ABASIS      S 
                                         1400     1410     1200     1210     1080     1600     1650     1300     1700     1800   
                                           T        V       H0       H01     AOSYM     SMH    MOLCAS    ERIS     OPER     GRID   

              2      15       86.93       700     1000      520     1800     2100      701     5300     5450     5400     2101   
                                         GEOM     BASIS   MCVARS    GRID      RKS     GEOM     HESS     NMOD     FREQ      RKS  
                                         5600     5650     5550     5750     5770   
                                         SURF    DIPOLE   VIBINFO   POLY      MU  

 PROGRAMS   *        TOTAL      VPT2      POLY    KS-SCF       INT    KS-SCF       INT    KS-SCF       INT    KS-SCF       INT
 CPU TIMES  *    119362.34      0.00      2.28     17.70     45.09     17.67     45.09     17.73     45.11     17.72     45.09
 REAL TIME  *    122121.82 SEC
 DISK USED  *         1.67 GB
 **********************************************************************************************************************************

 VPT2/DEF2-TZVP energy=      0.000000000000

            VPT2            POLY          KS-SCF          KS-SCF          KS-SCF          KS-SCF          KS-SCF          KS-SCF
  -1518.51042525  -1518.51042525  -1518.51042525  -1518.51042400  -1518.51041004  -1518.51040727  -1518.51042067  -1518.51041803
 **********************************************************************************************************************************
 Molpro calculation terminated
