 Entering Gaussian System, Link 0=g16
 Input=CFC-12.gjf
 Output=CFC-12.log
 Initial command:
 /apps/gaussian/g16c01/g16/l1.exe "/jobfs/9171156.gadi-pbs/Gau-1976716.inp" -scrdir="/jobfs/9171156.gadi-pbs/"
 Entering Link 1 = /apps/gaussian/g16c01/g16/l1.exe PID=   1976717.
  
 Copyright (c) 1988-2019, Gaussian, Inc.  All Rights Reserved.
  
 This is part of the Gaussian(R) 16 program.  It is based on
 the Gaussian(R) 09 system (copyright 2009, Gaussian, Inc.),
 the Gaussian(R) 03 system (copyright 2003, Gaussian, Inc.),
 the Gaussian(R) 98 system (copyright 1998, Gaussian, Inc.),
 the Gaussian(R) 94 system (copyright 1995, Gaussian, Inc.),
 the Gaussian 92(TM) system (copyright 1992, Gaussian, Inc.),
 the Gaussian 90(TM) system (copyright 1990, Gaussian, Inc.),
 the Gaussian 88(TM) system (copyright 1988, Gaussian, Inc.),
 the Gaussian 86(TM) system (copyright 1986, Carnegie Mellon
 University), and the Gaussian 82(TM) system (copyright 1983,
 Carnegie Mellon University). Gaussian is a federally registered
 trademark of Gaussian, Inc.
  
 This software contains proprietary and confidential information,
 including trade secrets, belonging to Gaussian, Inc.
  
 This software is provided under written license and may be
 used, copied, transmitted, or stored only in accord with that
 written license.
  
 The following legend is applicable only to US Government
 contracts under FAR:
  
                    RESTRICTED RIGHTS LEGEND
  
 Use, reproduction and disclosure by the US Government is
 subject to restrictions as set forth in subparagraphs (a)
 and (c) of the Commercial Computer Software - Restricted
 Rights clause in FAR 52.227-19.
  
 Gaussian, Inc.
 340 Quinnipiac St., Bldg. 40, Wallingford CT 06492
  
  
 ---------------------------------------------------------------
 Warning -- This program may not be used in any manner that
 competes with the business of Gaussian, Inc. or will provide
 assistance to any competitor of Gaussian, Inc.  The licensee
 of this program is prohibited from giving any competitor of
 Gaussian, Inc. access to this program.  By using this program,
 the user acknowledges that Gaussian, Inc. is engaged in the
 business of creating and licensing software in the field of
 computational chemistry and represents and warrants to the
 licensee that it is not a competitor of Gaussian, Inc. and that
 it will not use this program in any manner prohibited above.
 ---------------------------------------------------------------
  

 Cite this work as:
 Gaussian 16, Revision C.01,
 M. J. Frisch, G. W. Trucks, H. B. Schlegel, G. E. Scuseria, 
 M. A. Robb, J. R. Cheeseman, G. Scalmani, V. Barone, 
 G. A. Petersson, H. Nakatsuji, X. Li, M. Caricato, A. V. Marenich, 
 J. Bloino, B. G. Janesko, R. Gomperts, B. Mennucci, H. P. Hratchian, 
 J. V. Ortiz, A. F. Izmaylov, J. L. Sonnenberg, D. Williams-Young, 
 F. Ding, F. Lipparini, F. Egidi, J. Goings, B. Peng, A. Petrone, 
 T. Henderson, D. Ranasinghe, V. G. Zakrzewski, J. Gao, N. Rega, 
 G. Zheng, W. Liang, M. Hada, M. Ehara, K. Toyota, R. Fukuda, 
 J. Hasegawa, M. Ishida, T. Nakajima, Y. Honda, O. Kitao, H. Nakai, 
 T. Vreven, K. Throssell, J. A. Montgomery, Jr., J. E. Peralta, 
 F. Ogliaro, M. J. Bearpark, J. J. Heyd, E. N. Brothers, K. N. Kudin, 
 V. N. Staroverov, T. A. Keith, R. Kobayashi, J. Normand, 
 K. Raghavachari, A. P. Rendell, J. C. Burant, S. S. Iyengar, 
 J. Tomasi, M. Cossi, J. M. Millam, M. Klene, C. Adamo, R. Cammi, 
 J. W. Ochterski, R. L. Martin, K. Morokuma, O. Farkas, 
 J. B. Foresman, and D. J. Fox, Gaussian, Inc., Wallingford CT, 2019.
 
 ******************************************
 Gaussian 16:  ES64L-G16RevC.01  3-Jul-2019
                30-Jul-2020 
 ******************************************
 %NprocShared=4
 Will use up to    4 processors via shared memory.
 %chk=checkpoint.chk
 ---------------------------------------------------------------
 # wB97xD/Gen Freq Opt=(VeryTight,ZMatrix,CalcAll) Int=UltraFine
 ---------------------------------------------------------------
 1/7=1,10=4,18=40,26=4,38=1/1,3;
 2/12=2,17=6,18=5,29=3,40=1/2;
 3/5=7,11=2,25=1,30=1,71=2,74=-58,75=-5,140=1/1,2,3;
 4//1;
 5/5=2,38=5/2;
 8/6=4,10=90,11=11/1;
 11/6=1,8=1,9=11,15=111,16=1/1,2,10;
 10/6=1/2;
 6/7=2,8=2,9=2,10=2,18=1,28=1/1;
 7/10=1,25=1/1,2,3,16;
 1/7=1,10=4,18=40,26=4/3(3);
 2/29=3/2;
 7/8=1,9=1,25=1,44=-1/16;
 99//99;
 2/29=3/2;
 3/5=7,6=1,11=2,25=1,30=1,71=2,74=-58,75=-5,82=7,140=1/1,2,3;
 4/5=5,16=3,69=1/1;
 5/5=2,38=5/2;
 8/6=4,10=90,11=11/1;
 11/6=1,8=1,9=11,15=111,16=1/1,2,10;
 10/6=1/2;
 7/10=1,25=1/1,2,3,16;
 1/7=1,10=4,18=40,26=4/3(-8);
 2/29=3/2;
 6/7=2,8=2,9=2,10=2,18=1,19=2,28=1/1;
 7/8=1,9=1,25=1,44=-1/16;
 99//99;
 ------------------------------------
 CFC-12 - CCl2F2 HARMONIC FREQUENCIES
 ------------------------------------
 Symbolic Z-matrix:
 Charge =  0 Multiplicity = 1
 C
 F                    1    r2
 Cl                   1    r3       2    a3
 F                    1    r4       2    a4       3    d4       0
 Cl                   1    r5       2    a5       3    d5       0
       Variables:
  r2                    1.3579                   
  r3                    1.7653                   
  a3                  109.61                     
  r4                    1.3578                   
  a4                  106.61                     
  d4                  241.28                     
  r5                    1.7657                   
  a5                  109.6                      
  d5                  122.73                     
 

 GradGradGradGradGradGradGradGradGradGradGradGradGradGradGradGradGradGrad
 Berny optimization.
 Initialization pass.
                       ----------------------------
                       !    Initial Parameters    !
                       ! (Angstroms and Degrees)  !
 ----------------------                            ----------------------
 !      Name          Value   Derivative information (Atomic Units)     !
 ------------------------------------------------------------------------
 !       r2          1.3579   calculate D2E/DX2 analytically            !
 !       r3          1.7653   calculate D2E/DX2 analytically            !
 !       a3        109.61     calculate D2E/DX2 analytically            !
 !       r4          1.3578   calculate D2E/DX2 analytically            !
 !       a4        106.61     calculate D2E/DX2 analytically            !
 !       d4        241.28     calculate D2E/DX2 analytically            !
 !       r5          1.7657   calculate D2E/DX2 analytically            !
 !       a5        109.6      calculate D2E/DX2 analytically            !
 !       d5        122.73     calculate D2E/DX2 analytically            !
 ------------------------------------------------------------------------
 Trust Radius=3.00D-01 FncErr=1.00D-07 GrdErr=1.00D-06 EigMax=2.50D+02 EigMin=1.00D-04
 Number of steps in this run=     20 maximum allowed number of steps=    100.
 GradGradGradGradGradGradGradGradGradGradGradGradGradGradGradGradGradGrad

 ---------------------------------------------------------------------------------------------------
                            Z-MATRIX (ANGSTROMS AND DEGREES)
   CD    Cent   Atom    N1       Length/X        N2       Alpha/Y        N3        Beta/Z          J
 ---------------------------------------------------------------------------------------------------
      1      1  C 
      2      2  F        1   1.357900(     1)
      3      3  Cl       1   1.765300(     2)      2  109.610(     5)
      4      4  F        1   1.357800(     3)      2  106.610(     6)      3  241.280(     8)      0
      5      5  Cl       1   1.765700(     4)      2  109.600(     7)      3  122.730(     9)      0
 ---------------------------------------------------------------------------------------------------
                         Z-Matrix orientation:                         
 ---------------------------------------------------------------------
 Center     Atomic      Atomic             Coordinates (Angstroms)
 Number     Number       Type             X           Y           Z
 ---------------------------------------------------------------------
      1          6           0        0.000000    0.000000    0.000000
      2          9           0        0.000000    0.000000    1.357900
      3         17           0        1.662911    0.000000   -0.592463
      4          9           0       -0.625238    1.141074   -0.388135
      5         17           0       -0.899364   -1.399291   -0.592307
 ---------------------------------------------------------------------
                    Distance matrix (angstroms):
                    1          2          3          4          5
     1  C    0.000000
     2  F    1.357900   0.000000
     3  Cl   1.765300   2.563043   0.000000
     4  F    1.357800   2.177524   2.565039   0.000000
     5  Cl   1.765700   2.563235   2.919463   2.563257   0.000000
 Stoichiometry    CCl2F2
 Framework group  C1[X(CCl2F2)]
 Deg. of freedom     9
 Full point group                 C1      NOp   1
 Largest Abelian subgroup         C1      NOp   1
 Largest concise Abelian subgroup C1      NOp   1
                         Standard orientation:                         
 ---------------------------------------------------------------------
 Center     Atomic      Atomic             Coordinates (Angstroms)
 Number     Number       Type             X           Y           Z
 ---------------------------------------------------------------------
      1          6           0        0.000296    0.330330   -0.000252
      2          9           0        0.000249    1.140068    1.089802
      3         17           0        1.460198   -0.662126   -0.000993
      4          9           0       -0.002210    1.143369   -1.087717
      5         17           0       -1.459264   -0.663340   -0.000023
 ---------------------------------------------------------------------
 Rotational constants (GHZ):           3.9922500           2.6041623           2.1918391
 General basis read from cards:  (5D, 7F)
 There are   133 symmetry adapted cartesian basis functions of A   symmetry.
 There are   123 symmetry adapted basis functions of A   symmetry.
   123 basis functions,   275 primitive gaussians,   133 cartesian basis functions
    29 alpha electrons       29 beta electrons
       nuclear repulsion energy       301.6295930784 Hartrees.
 NAtoms=    5 NActive=    5 NUniq=    5 SFac= 1.00D+00 NAtFMM=   60 NAOKFM=F Big=F
 Integral buffers will be    131072 words long.
 Raffenetti 2 integral format.
 Two-electron integral symmetry is turned on.
 Nuclear repulsion after empirical dispersion term =      301.6290447581 Hartrees.
 One-electron integrals computed using PRISM.
 NBasis=   123 RedAO= T EigKep=  1.71D-03  NBF=   123
 NBsUse=   123 1.00D-06 EigRej= -1.00D+00 NBFU=   123
 ExpMin= 3.35D-02 ExpMax= 6.35D+04 ExpMxC= 2.17D+03 IAcc=3 IRadAn=         5 AccDes= 0.00D+00
 Harris functional with IExCor= 4639 and IRadAn=       5 diagonalized for initial guess.
 HarFok:  IExCor= 4639 AccDes= 0.00D+00 IRadAn=         5 IDoV= 1 UseB2=F ITyADJ=14
 ICtDFT=  3500011 ScaDFX=  1.000000  1.000000  1.000000  1.000000
 FoFCou: FMM=F IPFlag=           0 FMFlag=      100000 FMFlg1=           0
         NFxFlg=           0 DoJE=T BraDBF=F KetDBF=T FulRan=T
         wScrn=  0.000000 ICntrl=       500 IOpCl=  0 I1Cent=   200000004 NGrid=           0
         NMat0=    1 NMatS0=      1 NMatT0=    0 NMatD0=    1 NMtDS0=    0 NMtDT0=    0
 Petite list used in FoFCou.
 Keep R1 ints in memory in canonical form, NReq=62956768.
 Requested convergence on RMS density matrix=1.00D-08 within 128 cycles.
 Requested convergence on MAX density matrix=1.00D-06.
 Requested convergence on             energy=1.00D-06.
 No special actions if energy rises.
 SCF Done:  E(RwB97XD) =  -1158.07466324     A.U. after   12 cycles
            NFock= 12  Conv=0.51D-08     -V/T= 2.0013
 DoSCS=F DFT=T ScalE2(SS,OS)=  1.000000  1.000000
 Range of M.O.s used for correlation:     1   123
 NBasis=   123 NAE=    29 NBE=    29 NFC=     0 NFV=     0
 NROrb=    123 NOA=    29 NOB=    29 NVA=    94 NVB=    94

 **** Warning!!: The largest alpha MO coefficient is  0.11375273D+02

 Symmetrizing basis deriv contribution to polar:
 IMax=3 JMax=2 DiffMx= 0.00D+00
 G2DrvN: will do     6 centers at a time, making    1 passes.
 Calling FoFCou, ICntrl=  3107 FMM=F I1Cent=   0 AccDes= 0.00D+00.
 End of G2Drv F.D. properties file   721 does not exist.
 End of G2Drv F.D. properties file   722 does not exist.
 End of G2Drv F.D. properties file   788 does not exist.
          IDoAtm=11111
          Differentiating once with respect to electric field.
                with respect to dipole field.
          Differentiating once with respect to nuclear coordinates.
 Keep R1 ints in memory in canonical form, NReq=62947680.
          There are    18 degrees of freedom in the 1st order CPHF.  IDoFFX=6 NUNeed=     3.
     15 vectors produced by pass  0 Test12= 1.51D-14 5.56D-09 XBig12= 2.15D+01 2.31D+00.
 AX will form    15 AO Fock derivatives at one time.
     15 vectors produced by pass  1 Test12= 1.51D-14 5.56D-09 XBig12= 2.40D+00 3.66D-01.
     15 vectors produced by pass  2 Test12= 1.51D-14 5.56D-09 XBig12= 3.49D-01 1.18D-01.
     15 vectors produced by pass  3 Test12= 1.51D-14 5.56D-09 XBig12= 1.11D-02 3.64D-02.
     15 vectors produced by pass  4 Test12= 1.51D-14 5.56D-09 XBig12= 1.07D-04 2.78D-03.
     15 vectors produced by pass  5 Test12= 1.51D-14 5.56D-09 XBig12= 6.45D-07 2.08D-04.
     15 vectors produced by pass  6 Test12= 1.51D-14 5.56D-09 XBig12= 4.53D-09 1.52D-05.
     10 vectors produced by pass  7 Test12= 1.51D-14 5.56D-09 XBig12= 3.36D-11 1.04D-06.
      3 vectors produced by pass  8 Test12= 1.51D-14 5.56D-09 XBig12= 2.70D-13 1.25D-07.
      3 vectors produced by pass  9 Test12= 1.51D-14 5.56D-09 XBig12= 1.49D-15 1.09D-08.
 InvSVY:  IOpt=1 It=  1 EMax= 1.11D-15
 Solved reduced A of dimension   121 with    15 vectors.
 Isotropic polarizability for W=    0.000000       44.76 Bohr**3.
 End of Minotr F.D. properties file   721 does not exist.
 End of Minotr F.D. properties file   722 does not exist.
 End of Minotr F.D. properties file   788 does not exist.

 **********************************************************************

            Population analysis using the SCF Density.

 **********************************************************************

 Orbital symmetries:
       Occupied  (A) (A) (A) (A) (A) (A) (A) (A) (A) (A) (A) (A)
                 (A) (A) (A) (A) (A) (A) (A) (A) (A) (A) (A) (A)
                 (A) (A) (A) (A) (A)
       Virtual   (A) (A) (A) (A) (A) (A) (A) (A) (A) (A) (A) (A)
                 (A) (A) (A) (A) (A) (A) (A) (A) (A) (A) (A) (A)
                 (A) (A) (A) (A) (A) (A) (A) (A) (A) (A) (A) (A)
                 (A) (A) (A) (A) (A) (A) (A) (A) (A) (A) (A) (A)
                 (A) (A) (A) (A) (A) (A) (A) (A) (A) (A) (A) (A)
                 (A) (A) (A) (A) (A) (A) (A) (A) (A) (A) (A) (A)
                 (A) (A) (A) (A) (A) (A) (A) (A) (A) (A) (A) (A)
                 (A) (A) (A) (A) (A) (A) (A) (A) (A) (A)
 The electronic state is 1-A.
 Alpha  occ. eigenvalues -- -101.72382-101.72362 -24.87376 -24.87360 -10.59710
 Alpha  occ. eigenvalues --   -9.62434  -9.62415  -7.37214  -7.37194  -7.36065
 Alpha  occ. eigenvalues --   -7.36055  -7.36045  -7.36036  -1.42905  -1.36480
 Alpha  occ. eigenvalues --   -1.03392  -0.97440  -0.80023  -0.70739  -0.67397
 Alpha  occ. eigenvalues --   -0.66781  -0.57499  -0.56515  -0.54819  -0.50187
 Alpha  occ. eigenvalues --   -0.46828  -0.45422  -0.43563  -0.42281
 Alpha virt. eigenvalues --    0.02454   0.06433   0.06443   0.08294   0.08592
 Alpha virt. eigenvalues --    0.08660   0.11880   0.12354   0.13176   0.13498
 Alpha virt. eigenvalues --    0.13999   0.15671   0.16414   0.19049   0.21362
 Alpha virt. eigenvalues --    0.23146   0.23416   0.26310   0.26863   0.27127
 Alpha virt. eigenvalues --    0.27958   0.28543   0.29382   0.32239   0.32585
 Alpha virt. eigenvalues --    0.35265   0.35979   0.36909   0.37482   0.38483
 Alpha virt. eigenvalues --    0.39186   0.43990   0.44063   0.44567   0.44686
 Alpha virt. eigenvalues --    0.48432   0.48904   0.54593   0.55987   0.67383
 Alpha virt. eigenvalues --    0.69618   0.72771   0.73215   0.75665   0.77593
 Alpha virt. eigenvalues --    0.78141   0.81566   0.82106   0.83584   0.84103
 Alpha virt. eigenvalues --    0.87574   0.92917   0.95259   0.98022   0.99057
 Alpha virt. eigenvalues --    0.99238   0.99456   1.00099   1.00522   1.01594
 Alpha virt. eigenvalues --    1.01950   1.02712   1.05716   1.10444   1.11212
 Alpha virt. eigenvalues --    1.18813   1.21133   1.21434   1.39760   1.46178
 Alpha virt. eigenvalues --    1.47440   1.51202   1.68665   1.70590   1.86944
 Alpha virt. eigenvalues --    1.93144   1.96386   2.02400   2.06767   2.09817
 Alpha virt. eigenvalues --    2.20849   2.25527   2.70601   2.79176   2.83148
 Alpha virt. eigenvalues --    2.84947   2.85260   2.89737   2.92768   2.98231
 Alpha virt. eigenvalues --    3.01784   3.20164   3.52889   3.61132
          Condensed to atoms (all electrons):
               1          2          3          4          5
     1  C    4.789251  -0.288453   0.139526  -0.288696   0.140328
     2  F   -0.288453  10.127493  -0.123691  -0.119967  -0.123343
     3  Cl   0.139526  -0.123691  17.644423  -0.123384  -0.254706
     4  F   -0.288696  -0.119967  -0.123384  10.127441  -0.123629
     5  Cl   0.140328  -0.123343  -0.254706  -0.123629  17.643418
 Mulliken charges:
               1
     1  C    1.508043
     2  F   -0.472040
     3  Cl  -0.282169
     4  F   -0.471766
     5  Cl  -0.282069
 Sum of Mulliken charges =  -0.00000
 Mulliken charges with hydrogens summed into heavy atoms:
               1
     1  C    1.508043
     2  F   -0.472040
     3  Cl  -0.282169
     4  F   -0.471766
     5  Cl  -0.282069
 APT charges:
               1
     1  C    1.701557
     2  F   -0.561515
     3  Cl  -0.289094
     4  F   -0.561503
     5  Cl  -0.289445
 Sum of APT charges =  -0.00000
 APT charges with hydrogens summed into heavy atoms:
               1
     1  C    1.701557
     2  F   -0.561515
     3  Cl  -0.289094
     4  F   -0.561503
     5  Cl  -0.289445
 Electronic spatial extent (au):  <R**2>=            564.4295
 Charge=             -0.0000 electrons
 Dipole moment (field-independent basis, Debye):
    X=              0.0053    Y=             -0.6296    Z=             -0.0018  Tot=              0.6296
 Quadrupole moment (field-independent basis, Debye-Ang):
   XX=            -38.5383   YY=            -40.7693   ZZ=            -41.8288
   XY=             -0.0023   XZ=             -0.0011   YZ=             -0.0019
 Traceless Quadrupole moment (field-independent basis, Debye-Ang):
   XX=              1.8405   YY=             -0.3905   ZZ=             -1.4500
   XY=             -0.0023   XZ=             -0.0011   YZ=             -0.0019
 Octapole moment (field-independent basis, Debye-Ang**2):
  XXX=              0.0096  YYY=              8.9332  ZZZ=              0.0098  XYY=             -0.0001
  XXY=             -2.1688  XXZ=              0.0060  XZZ=             -0.0011  YZZ=              3.0716
  YYZ=              0.0047  XYZ=             -0.0001
 Hexadecapole moment (field-independent basis, Debye-Ang**3):
 XXXX=           -332.1218 YYYY=           -184.5810 ZZZZ=           -110.1386 XXXY=             -0.0299
 XXXZ=              0.0081 YYYX=             -0.0156 YYYZ=             -0.0131 ZZZX=              0.0179
 ZZZY=             -0.0104 XXYY=            -81.2585 XXZZ=            -79.5349 YYZZ=            -49.7521
 XXYZ=             -0.0026 YYXZ=              0.0040 ZZXY=             -0.0096
 N-N= 3.016290447581D+02 E-N=-3.357139733778D+03  KE= 1.156607247293D+03
  Exact polarizability:      53.269       0.003      42.662      -0.001       0.000      38.362
 Approx polarizability:      56.438      -0.001      49.154       0.003      -0.004      44.518
 Calling FoFJK, ICntrl=    100127 FMM=F ISym2X=0 I1Cent= 0 IOpClX= 0 NMat=1 NMatS=1 NMatT=0.
 ***** Axes restored to original set *****
 -------------------------------------------------------------------
 Center     Atomic                   Forces (Hartrees/Bohr)
 Number     Number              X              Y              Z
 -------------------------------------------------------------------
      1        6          -0.008446158    0.014742921    0.012905074
      2        9           0.000986449   -0.001710428   -0.020658966
      3       17          -0.002610198    0.001797733    0.001902004
      4        9           0.010044740   -0.017877704    0.003911012
      5       17           0.000025166    0.003047477    0.001940876
 -------------------------------------------------------------------
 Cartesian Forces:  Max     0.020658966 RMS     0.009481372
 -----------------------------------------------------------------------------------------------
                       Internal Coordinate Forces (Hartree/Bohr or radian)
  Cent   Atom   N1       Length/X         N2         Alpha/Y        N3         Beta/Z          J
 -----------------------------------------------------------------------------------------------
      1  C 
      2  F        1  -0.020659(     1)
      3  Cl       1  -0.003097(     2)      2  -0.003055(     5)
      4  F        1  -0.020768(     3)      2   0.005423(     6)      3   0.000537(     8)     0
      5  Cl       1  -0.003079(     4)      2  -0.003216(     7)      3   0.005113(     9)     0
 -----------------------------------------------------------------------------------------------
 Internal  Forces:  Max     0.020767517 RMS     0.010288462

 GradGradGradGradGradGradGradGradGradGradGradGradGradGradGradGradGradGrad
 Berny optimization.
 Search for a local minimum.
 Step number   1 out of a maximum of   20
 All quantities printed in internal units (Hartrees-Bohrs-Radians)
 Second derivative matrix not updated -- analytic derivatives used.
 The second derivative matrix:
                          r2        r3        a3        r4        a4
           r2           0.33681
           r3           0.03654   0.22481
           a3           0.06729   0.00092   0.40814
           r4           0.04945   0.03636  -0.02889   0.33688
           a4           0.07905  -0.02854   0.10284   0.01569   0.47175
           d4          -0.00002  -0.05350   0.06249   0.00037  -0.00029
           r5           0.03653   0.02866  -0.03399   0.03652  -0.02869
           a5           0.06727  -0.03401   0.11808  -0.02899   0.10328
           d5          -0.00129   0.05209  -0.07406  -0.05722   0.07324
                          d4        r5        a5        d5
           d4           0.39663
           r5           0.05390   0.22456
           a5          -0.06273   0.00076   0.40822
           d5          -0.19923  -0.00102  -0.01147   0.37641
 ITU=  0
     Eigenvalues ---    0.11872   0.15531   0.21335   0.27509   0.29780
     Eigenvalues ---    0.36839   0.42049   0.64199   0.69307
 RFO step:  Lambda=-2.51149399D-03 EMin= 1.18719666D-01
 Linear search not attempted -- first point.
 Variable       Old X    -DE/DX   Delta X   Delta X   Delta X     New X
                                 (Linear)    (Quad)   (Total)
    r2        2.56606  -0.02066   0.00000  -0.05764  -0.05764   2.50842
    r3        3.33593  -0.00310   0.00000   0.00712   0.00712   3.34305
    a3        1.91306  -0.00305   0.00000  -0.00692  -0.00692   1.90613
    r4        2.56587  -0.02077   0.00000  -0.05721  -0.05721   2.50866
    a4        1.86070   0.00542   0.00000   0.02722   0.02722   1.88792
    d4        4.21113   0.00054   0.00000  -0.00006  -0.00006   4.21107
    r5        3.33669  -0.00308   0.00000   0.00644   0.00644   3.34313
    a5        1.91288  -0.00322   0.00000  -0.00680  -0.00680   1.90608
    d5        2.14204   0.00511   0.00000  -0.00316  -0.00316   2.13889
         Item               Value     Threshold  Converged?
 Maximum Force            0.020768     0.000002     NO 
 RMS     Force            0.010288     0.000001     NO 
 Maximum Displacement     0.057638     0.000006     NO 
 RMS     Displacement     0.028930     0.000004     NO 
 Predicted change in Energy=-1.265206D-03
 GradGradGradGradGradGradGradGradGradGradGradGradGradGradGradGradGradGrad

 ---------------------------------------------------------------------------------------------------
                            Z-MATRIX (ANGSTROMS AND DEGREES)
   CD    Cent   Atom    N1       Length/X        N2       Alpha/Y        N3        Beta/Z          J
 ---------------------------------------------------------------------------------------------------
      1      1  C 
      2      2  F        1   1.327399(     1)
      3      3  Cl       1   1.769065(     2)      2  109.213(     5)
      4      4  F        1   1.327526(     3)      2  108.170(     6)      3  241.276(     8)      0
      5      5  Cl       1   1.769110(     4)      2  109.210(     7)      3  122.549(     9)      0
 ---------------------------------------------------------------------------------------------------
                         Z-Matrix orientation:                         
 ---------------------------------------------------------------------
 Center     Atomic      Atomic             Coordinates (Angstroms)
 Number     Number       Type             X           Y           Z
 ---------------------------------------------------------------------
      1          6           0        0.000000    0.000000    0.000000
      2          9           0        0.000000    0.000000    1.327399
      3         17           0        1.670528    0.000000   -0.582176
      4          9           0       -0.606177    1.106121   -0.413969
      5         17           0       -0.898821   -1.408202   -0.582097
 ---------------------------------------------------------------------
                    Distance matrix (angstroms):
                    1          2          3          4          5
     1  C    0.000000
     2  F    1.327399   0.000000
     3  Cl   1.769065   2.537152   0.000000
     4  F    1.327526   2.150190   2.536766   0.000000
     5  Cl   1.769110   2.537141   2.929947   2.536874   0.000000
 Stoichiometry    CCl2F2
 Framework group  C1[X(CCl2F2)]
 Deg. of freedom     9
 Full point group                 C1      NOp   1
 Largest Abelian subgroup         C1      NOp   1
 Largest concise Abelian subgroup C1      NOp   1
                         Standard orientation:                         
 ---------------------------------------------------------------------
 Center     Atomic      Atomic             Coordinates (Angstroms)
 Number     Number       Type             X           Y           Z
 ---------------------------------------------------------------------
      1          6           0        0.000020    0.339701    0.000121
      2          9           0       -0.000017    1.118927    1.074735
      3         17           0        1.464941   -0.652064    0.000197
      4          9           0        0.000127    1.117816   -1.075455
      5         17           0       -1.465006   -0.651989    0.000141
 ---------------------------------------------------------------------
 Rotational constants (GHZ):           4.1237717           2.6048529           2.2094870
 Basis read from rwf:  (5D, 7F)
 There are   133 symmetry adapted cartesian basis functions of A   symmetry.
 There are   123 symmetry adapted basis functions of A   symmetry.
   123 basis functions,   275 primitive gaussians,   133 cartesian basis functions
    29 alpha electrons       29 beta electrons
       nuclear repulsion energy       303.8593829359 Hartrees.
 NAtoms=    5 NActive=    5 NUniq=    5 SFac= 1.00D+00 NAtFMM=   60 NAOKFM=F Big=F
 Integral buffers will be    131072 words long.
 Raffenetti 2 integral format.
 Two-electron integral symmetry is turned on.
 Nuclear repulsion after empirical dispersion term =      303.8588564350 Hartrees.
 One-electron integrals computed using PRISM.
 NBasis=   123 RedAO= T EigKep=  1.69D-03  NBF=   123
 NBsUse=   123 1.00D-06 EigRej= -1.00D+00 NBFU=   123
 Initial guess from the checkpoint file:  "checkpoint.chk"
 B after Tr=     0.000000   -0.000000   -0.000000
         Rot=    1.000000    0.000720    0.000271    0.000286 Ang=   0.09 deg.
 ExpMin= 3.35D-02 ExpMax= 6.35D+04 ExpMxC= 2.17D+03 IAcc=3 IRadAn=         5 AccDes= 0.00D+00
 Harris functional with IExCor= 4639 and IRadAn=       5 diagonalized for initial guess.
 HarFok:  IExCor= 4639 AccDes= 0.00D+00 IRadAn=         5 IDoV= 1 UseB2=F ITyADJ=14
 ICtDFT=  3500011 ScaDFX=  1.000000  1.000000  1.000000  1.000000
 FoFCou: FMM=F IPFlag=           0 FMFlag=      100000 FMFlg1=           0
         NFxFlg=           0 DoJE=T BraDBF=F KetDBF=T FulRan=T
         wScrn=  0.000000 ICntrl=       500 IOpCl=  0 I1Cent=   200000004 NGrid=           0
         NMat0=    1 NMatS0=      1 NMatT0=    0 NMatD0=    1 NMtDS0=    0 NMtDT0=    0
 Petite list used in FoFCou.
 Keep R1 ints in memory in canonical form, NReq=62956768.
 Requested convergence on RMS density matrix=1.00D-08 within 128 cycles.
 Requested convergence on MAX density matrix=1.00D-06.
 Requested convergence on             energy=1.00D-06.
 No special actions if energy rises.
 SCF Done:  E(RwB97XD) =  -1158.07584431     A.U. after   10 cycles
            NFock= 10  Conv=0.97D-08     -V/T= 2.0011
 DoSCS=F DFT=T ScalE2(SS,OS)=  1.000000  1.000000
 Range of M.O.s used for correlation:     1   123
 NBasis=   123 NAE=    29 NBE=    29 NFC=     0 NFV=     0
 NROrb=    123 NOA=    29 NOB=    29 NVA=    94 NVB=    94

 **** Warning!!: The largest alpha MO coefficient is  0.11245390D+02

 Symmetrizing basis deriv contribution to polar:
 IMax=3 JMax=2 DiffMx= 0.00D+00
 G2DrvN: will do     6 centers at a time, making    1 passes.
 Calling FoFCou, ICntrl=  3107 FMM=F I1Cent=   0 AccDes= 0.00D+00.
 End of G2Drv F.D. properties file   721 does not exist.
 End of G2Drv F.D. properties file   722 does not exist.
 End of G2Drv F.D. properties file   788 does not exist.
          IDoAtm=11111
          Differentiating once with respect to electric field.
                with respect to dipole field.
          Differentiating once with respect to nuclear coordinates.
 Keep R1 ints in memory in canonical form, NReq=62947680.
          There are    18 degrees of freedom in the 1st order CPHF.  IDoFFX=6 NUNeed=     3.
     15 vectors produced by pass  0 Test12= 1.51D-14 5.56D-09 XBig12= 2.15D+01 2.38D+00.
 AX will form    15 AO Fock derivatives at one time.
     15 vectors produced by pass  1 Test12= 1.51D-14 5.56D-09 XBig12= 2.33D+00 3.98D-01.
     15 vectors produced by pass  2 Test12= 1.51D-14 5.56D-09 XBig12= 3.28D-01 1.15D-01.
     15 vectors produced by pass  3 Test12= 1.51D-14 5.56D-09 XBig12= 1.11D-02 3.70D-02.
     15 vectors produced by pass  4 Test12= 1.51D-14 5.56D-09 XBig12= 9.01D-05 2.80D-03.
     15 vectors produced by pass  5 Test12= 1.51D-14 5.56D-09 XBig12= 5.73D-07 1.88D-04.
     15 vectors produced by pass  6 Test12= 1.51D-14 5.56D-09 XBig12= 3.41D-09 1.46D-05.
      9 vectors produced by pass  7 Test12= 1.51D-14 5.56D-09 XBig12= 2.37D-11 1.05D-06.
      3 vectors produced by pass  8 Test12= 1.51D-14 5.56D-09 XBig12= 1.89D-13 1.06D-07.
      3 vectors produced by pass  9 Test12= 1.51D-14 5.56D-09 XBig12= 1.13D-15 7.12D-09.
 InvSVY:  IOpt=1 It=  1 EMax= 1.78D-15
 Solved reduced A of dimension   120 with    15 vectors.
 Isotropic polarizability for W=    0.000000       44.53 Bohr**3.
 End of Minotr F.D. properties file   721 does not exist.
 End of Minotr F.D. properties file   722 does not exist.
 End of Minotr F.D. properties file   788 does not exist.
 Calling FoFJK, ICntrl=    100127 FMM=F ISym2X=0 I1Cent= 0 IOpClX= 0 NMat=1 NMatS=1 NMatT=0.
 ***** Axes restored to original set *****
 -------------------------------------------------------------------
 Center     Atomic                   Forces (Hartrees/Bohr)
 Number     Number              X              Y              Z
 -------------------------------------------------------------------
      1        6           0.000805279   -0.001482884   -0.001370266
      2        9           0.000021289   -0.000034243    0.002101913
      3       17           0.000228488   -0.000029871   -0.000048115
      4        9          -0.000961774    0.001735798   -0.000636142
      5       17          -0.000093282   -0.000188800   -0.000047390
 -------------------------------------------------------------------
 Cartesian Forces:  Max     0.002101913 RMS     0.000951819
 -----------------------------------------------------------------------------------------------
                       Internal Coordinate Forces (Hartree/Bohr or radian)
  Cent   Atom   N1       Length/X         N2         Alpha/Y        N3         Beta/Z          J
 -----------------------------------------------------------------------------------------------
      1  C 
      2  F        1   0.002102(     1)
      3  Cl       1   0.000232(     2)      2  -0.000099(     5)
      4  F        1   0.002084(     3)      2  -0.000036(     6)      3  -0.000022(     8)     0
      5  Cl       1   0.000213(     4)      2  -0.000081(     7)      3  -0.000072(     9)     0
 -----------------------------------------------------------------------------------------------
 Internal  Forces:  Max     0.002101913 RMS     0.000993478

 GradGradGradGradGradGradGradGradGradGradGradGradGradGradGradGradGradGrad
 Berny optimization.
 Search for a local minimum.
 Step number   2 out of a maximum of   20
 All quantities printed in internal units (Hartrees-Bohrs-Radians)
 Second derivative matrix not updated -- analytic derivatives used.
 DE= -1.18D-03 DEPred=-1.27D-03 R= 9.33D-01
 TightC=F SS=  1.41D+00  RLast= 8.68D-02 DXNew= 5.0454D-01 2.6037D-01
 Trust test= 9.33D-01 RLast= 8.68D-02 DXMaxT set to 3.00D-01
 The second derivative matrix:
                          r2        r3        a3        r4        a4
           r2           0.41393
           r3           0.03937   0.22631
           a3           0.07139   0.00395   0.42546
           r4           0.05413   0.03941  -0.03228   0.41365
           a4           0.08316  -0.03117   0.11132   0.01528   0.49202
           d4           0.00000  -0.05863   0.06939  -0.00002   0.00002
           r5           0.03937   0.02807  -0.03271   0.03940  -0.03115
           a5           0.07139  -0.03271   0.11231  -0.03227   0.11129
           d5          -0.00146   0.05146  -0.07238  -0.06022   0.07593
                          d4        r5        a5        d5
           d4           0.41482
           r5           0.05861   0.22626
           a5          -0.06938   0.00396   0.42547
           d5          -0.20765  -0.00640  -0.00291   0.38237
 ITU=  1  0
     Eigenvalues ---    0.12250   0.15921   0.23045   0.30181   0.33553
     Eigenvalues ---    0.38384   0.48845   0.66826   0.73024
 RFO step:  Lambda=-1.51216777D-06 EMin= 1.22496942D-01
 Quintic linear search produced a step of -0.07907.
 Variable       Old X    -DE/DX   Delta X   Delta X   Delta X     New X
                                 (Linear)    (Quad)   (Total)
    r2        2.50842   0.00210   0.00456   0.00047   0.00502   2.51344
    r3        3.34305   0.00023  -0.00056  -0.00015  -0.00071   3.34234
    a3        1.90613  -0.00010   0.00055  -0.00092  -0.00037   1.90576
    r4        2.50866   0.00208   0.00452   0.00022   0.00475   2.51341
    a4        1.88792  -0.00004  -0.00215   0.00112  -0.00104   1.88688
    d4        4.21107  -0.00002   0.00001   0.00047   0.00048   4.21154
    r5        3.34313   0.00021  -0.00051  -0.00030  -0.00081   3.34232
    a5        1.90608  -0.00008   0.00054  -0.00085  -0.00031   1.90576
    d5        2.13889  -0.00007   0.00025   0.00077   0.00102   2.13990
         Item               Value     Threshold  Converged?
 Maximum Force            0.002102     0.000002     NO 
 RMS     Force            0.000993     0.000001     NO 
 Maximum Displacement     0.005023     0.000006     NO 
 RMS     Displacement     0.002392     0.000004     NO 
 Predicted change in Energy=-9.941181D-06
 GradGradGradGradGradGradGradGradGradGradGradGradGradGradGradGradGradGrad

 ---------------------------------------------------------------------------------------------------
                            Z-MATRIX (ANGSTROMS AND DEGREES)
   CD    Cent   Atom    N1       Length/X        N2       Alpha/Y        N3        Beta/Z          J
 ---------------------------------------------------------------------------------------------------
      1      1  C 
      2      2  F        1   1.330057(     1)
      3      3  Cl       1   1.768690(     2)      2  109.192(     5)
      4      4  F        1   1.330038(     3)      2  108.110(     6)      3  241.304(     8)      0
      5      5  Cl       1   1.768681(     4)      2  109.192(     7)      3  122.607(     9)      0
 ---------------------------------------------------------------------------------------------------
                         Z-Matrix orientation:                         
 ---------------------------------------------------------------------
 Center     Atomic      Atomic             Coordinates (Angstroms)
 Number     Number       Type             X           Y           Z
 ---------------------------------------------------------------------
      1          6           0        0.000000    0.000000    0.000000
      2          9           0        0.000000    0.000000    1.330057
      3         17           0        1.670392    0.000000   -0.581426
      4          9           0       -0.607003    1.108880   -0.413443
      5         17           0       -0.900130   -1.407100   -0.581435
 ---------------------------------------------------------------------
                    Distance matrix (angstroms):
                    1          2          3          4          5
     1  C    0.000000
     2  F    1.330057   0.000000
     3  Cl   1.768690   2.538499   0.000000
     4  F    1.330038   2.153569   2.538574   0.000000
     5  Cl   1.768681   2.538497   2.930446   2.538562   0.000000
 Stoichiometry    CCl2F2
 Framework group  C1[X(CCl2F2)]
 Deg. of freedom     9
 Full point group                 C1      NOp   1
 Largest Abelian subgroup         C1      NOp   1
 Largest concise Abelian subgroup C1      NOp   1
                         Standard orientation:                         
 ---------------------------------------------------------------------
 Center     Atomic      Atomic             Coordinates (Angstroms)
 Number     Number       Type             X           Y           Z
 ---------------------------------------------------------------------
      1          6           0       -0.000004    0.338421   -0.000022
      2          9           0       -0.000002    1.119046    1.076861
      3         17           0        1.465228   -0.652215   -0.000039
      4          9           0       -0.000014    1.119284   -1.076708
      5         17           0       -1.465218   -0.652226   -0.000034
 ---------------------------------------------------------------------
 Rotational constants (GHZ):           4.1166198           2.6023136           2.2082710
 Basis read from rwf:  (5D, 7F)
 There are   133 symmetry adapted cartesian basis functions of A   symmetry.
 There are   123 symmetry adapted basis functions of A   symmetry.
   123 basis functions,   275 primitive gaussians,   133 cartesian basis functions
    29 alpha electrons       29 beta electrons
       nuclear repulsion energy       303.6714428695 Hartrees.
 NAtoms=    5 NActive=    5 NUniq=    5 SFac= 1.00D+00 NAtFMM=   60 NAOKFM=F Big=F
 Integral buffers will be    131072 words long.
 Raffenetti 2 integral format.
 Two-electron integral symmetry is turned on.
 Nuclear repulsion after empirical dispersion term =      303.6709145965 Hartrees.
 One-electron integrals computed using PRISM.
 NBasis=   123 RedAO= T EigKep=  1.69D-03  NBF=   123
 NBsUse=   123 1.00D-06 EigRej= -1.00D+00 NBFU=   123
 Initial guess from the checkpoint file:  "checkpoint.chk"
 B after Tr=     0.000000    0.000000   -0.000000
         Rot=    1.000000   -0.000223   -0.000016   -0.000019 Ang=  -0.03 deg.
 Keep R1 ints in memory in canonical form, NReq=62956768.
 Requested convergence on RMS density matrix=1.00D-08 within 128 cycles.
 Requested convergence on MAX density matrix=1.00D-06.
 Requested convergence on             energy=1.00D-06.
 No special actions if energy rises.
 SCF Done:  E(RwB97XD) =  -1158.07585431     A.U. after    8 cycles
            NFock=  8  Conv=0.90D-08     -V/T= 2.0012
 DoSCS=F DFT=T ScalE2(SS,OS)=  1.000000  1.000000
 Range of M.O.s used for correlation:     1   123
 NBasis=   123 NAE=    29 NBE=    29 NFC=     0 NFV=     0
 NROrb=    123 NOA=    29 NOB=    29 NVA=    94 NVB=    94

 **** Warning!!: The largest alpha MO coefficient is  0.11265416D+02

 Symmetrizing basis deriv contribution to polar:
 IMax=3 JMax=2 DiffMx= 0.00D+00
 G2DrvN: will do     6 centers at a time, making    1 passes.
 Calling FoFCou, ICntrl=  3107 FMM=F I1Cent=   0 AccDes= 0.00D+00.
 End of G2Drv F.D. properties file   721 does not exist.
 End of G2Drv F.D. properties file   722 does not exist.
 End of G2Drv F.D. properties file   788 does not exist.
          IDoAtm=11111
          Differentiating once with respect to electric field.
                with respect to dipole field.
          Differentiating once with respect to nuclear coordinates.
 Keep R1 ints in memory in canonical form, NReq=62947680.
          There are    18 degrees of freedom in the 1st order CPHF.  IDoFFX=6 NUNeed=     3.
     15 vectors produced by pass  0 Test12= 1.51D-14 5.56D-09 XBig12= 2.16D+01 2.38D+00.
 AX will form    15 AO Fock derivatives at one time.
     15 vectors produced by pass  1 Test12= 1.51D-14 5.56D-09 XBig12= 2.33D+00 3.98D-01.
     15 vectors produced by pass  2 Test12= 1.51D-14 5.56D-09 XBig12= 3.30D-01 1.15D-01.
     15 vectors produced by pass  3 Test12= 1.51D-14 5.56D-09 XBig12= 1.10D-02 3.69D-02.
     15 vectors produced by pass  4 Test12= 1.51D-14 5.56D-09 XBig12= 9.18D-05 2.82D-03.
     15 vectors produced by pass  5 Test12= 1.51D-14 5.56D-09 XBig12= 5.81D-07 1.91D-04.
     15 vectors produced by pass  6 Test12= 1.51D-14 5.56D-09 XBig12= 3.51D-09 1.43D-05.
      9 vectors produced by pass  7 Test12= 1.51D-14 5.56D-09 XBig12= 2.46D-11 1.04D-06.
      3 vectors produced by pass  8 Test12= 1.51D-14 5.56D-09 XBig12= 1.98D-13 1.07D-07.
      3 vectors produced by pass  9 Test12= 1.51D-14 5.56D-09 XBig12= 1.17D-15 7.66D-09.
 InvSVY:  IOpt=1 It=  1 EMax= 1.11D-15
 Solved reduced A of dimension   120 with    15 vectors.
 Isotropic polarizability for W=    0.000000       44.55 Bohr**3.
 End of Minotr F.D. properties file   721 does not exist.
 End of Minotr F.D. properties file   722 does not exist.
 End of Minotr F.D. properties file   788 does not exist.
 Calling FoFJK, ICntrl=    100127 FMM=F ISym2X=0 I1Cent= 0 IOpClX= 0 NMat=1 NMatS=1 NMatT=0.
 ***** Axes restored to original set *****
 -------------------------------------------------------------------
 Center     Atomic                   Forces (Hartrees/Bohr)
 Number     Number              X              Y              Z
 -------------------------------------------------------------------
      1        6           0.000033455   -0.000056725   -0.000021720
      2        9          -0.000017583    0.000031737   -0.000018778
      3       17          -0.000034971    0.000005040    0.000005623
      4        9           0.000005830   -0.000009141    0.000029924
      5       17           0.000013269    0.000029089    0.000004951
 -------------------------------------------------------------------
 Cartesian Forces:  Max     0.000056725 RMS     0.000025583
 -----------------------------------------------------------------------------------------------
                       Internal Coordinate Forces (Hartree/Bohr or radian)
  Cent   Atom   N1       Length/X         N2         Alpha/Y        N3         Beta/Z          J
 -----------------------------------------------------------------------------------------------
      1  C 
      2  F        1  -0.000019(     1)
      3  Cl       1  -0.000035(     2)      2   0.000021(     5)
      4  F        1  -0.000020(     3)      2  -0.000063(     6)      3   0.000002(     8)     0
      5  Cl       1  -0.000032(     4)      2   0.000019(     7)      3   0.000014(     9)     0
 -----------------------------------------------------------------------------------------------
 Internal  Forces:  Max     0.000063034 RMS     0.000029662

 GradGradGradGradGradGradGradGradGradGradGradGradGradGradGradGradGradGrad
 Berny optimization.
 Search for a local minimum.
 Step number   3 out of a maximum of   20
 All quantities printed in internal units (Hartrees-Bohrs-Radians)
 Second derivative matrix not updated -- analytic derivatives used.
 DE= -1.00D-05 DEPred=-9.94D-06 R= 1.01D+00
 TightC=F SS=  1.41D+00  RLast= 7.18D-03 DXNew= 5.0454D-01 2.1530D-02
 Trust test= 1.01D+00 RLast= 7.18D-03 DXMaxT set to 3.00D-01
 The second derivative matrix:
                          r2        r3        a3        r4        a4
           r2           0.40669
           r3           0.03920   0.22626
           a3           0.07123   0.00397   0.42434
           r4           0.05356   0.03919  -0.03209   0.40673
           a4           0.08238  -0.03095   0.11079   0.01482   0.48908
           d4           0.00000  -0.05831   0.06904   0.00000  -0.00000
           r5           0.03920   0.02803  -0.03265   0.03919  -0.03095
           a5           0.07123  -0.03265   0.11219  -0.03209   0.11079
           d5          -0.00146   0.05135  -0.07221  -0.06006   0.07566
                          d4        r5        a5        d5
           d4           0.41383
           r5           0.05831   0.22627
           a5          -0.06904   0.00397   0.42434
           d5          -0.20719  -0.00620  -0.00306   0.38154
 ITU=  1  1  0
     Eigenvalues ---    0.12227   0.15891   0.22942   0.30043   0.33160
     Eigenvalues ---    0.38173   0.48182   0.66645   0.72646
 RFO step:  Lambda=-2.99375021D-08 EMin= 1.22267001D-01
 Quintic linear search produced a step of -0.00350.
 Variable       Old X    -DE/DX   Delta X   Delta X   Delta X     New X
                                 (Linear)    (Quad)   (Total)
    r2        2.51344  -0.00002  -0.00002   0.00001  -0.00000   2.51344
    r3        3.34234  -0.00003   0.00000  -0.00018  -0.00017   3.34217
    a3        1.90576   0.00002   0.00000   0.00009   0.00009   1.90585
    r4        2.51341  -0.00002  -0.00002   0.00005   0.00003   2.51344
    a4        1.88688  -0.00006   0.00000  -0.00022  -0.00022   1.88667
    d4        4.21154   0.00000  -0.00000   0.00009   0.00009   4.21163
    r5        3.34232  -0.00003   0.00000  -0.00016  -0.00016   3.34216
    a5        1.90576   0.00002   0.00000   0.00008   0.00008   1.90585
    d5        2.13990   0.00001  -0.00000   0.00017   0.00017   2.14007
         Item               Value     Threshold  Converged?
 Maximum Force            0.000063     0.000002     NO 
 RMS     Force            0.000030     0.000001     NO 
 Maximum Displacement     0.000216     0.000006     NO 
 RMS     Displacement     0.000131     0.000004     NO 
 Predicted change in Energy=-1.510220D-08
 GradGradGradGradGradGradGradGradGradGradGradGradGradGradGradGradGradGrad

 ---------------------------------------------------------------------------------------------------
                            Z-MATRIX (ANGSTROMS AND DEGREES)
   CD    Cent   Atom    N1       Length/X        N2       Alpha/Y        N3        Beta/Z          J
 ---------------------------------------------------------------------------------------------------
      1      1  C 
      2      2  F        1   1.330055(     1)
      3      3  Cl       1   1.768598(     2)      2  109.197(     5)
      4      4  F        1   1.330055(     3)      2  108.098(     6)      3  241.309(     8)      0
      5      5  Cl       1   1.768597(     4)      2  109.197(     7)      3  122.617(     9)      0
 ---------------------------------------------------------------------------------------------------
                         Z-Matrix orientation:                         
 ---------------------------------------------------------------------
 Center     Atomic      Atomic             Coordinates (Angstroms)
 Number     Number       Type             X           Y           Z
 ---------------------------------------------------------------------
      1          6           0        0.000000    0.000000    0.000000
      2          9           0        0.000000    0.000000    1.330055
      3         17           0        1.670252    0.000000   -0.581547
      4          9           0       -0.606958    1.109024   -0.413175
      5         17           0       -0.900301   -1.406839   -0.581547
 ---------------------------------------------------------------------
                    Distance matrix (angstroms):
                    1          2          3          4          5
     1  C    0.000000
     2  F    1.330055   0.000000
     3  Cl   1.768598   2.538496   0.000000
     4  F    1.330055   2.153412   2.538497   0.000000
     5  Cl   1.768597   2.538496   2.930348   2.538497   0.000000
 Stoichiometry    CCl2F2
 Framework group  C1[X(CCl2F2)]
 Deg. of freedom     9
 Full point group                 C1      NOp   1
 Largest Abelian subgroup         C1      NOp   1
 Largest concise Abelian subgroup C1      NOp   1
                         Standard orientation:                         
 ---------------------------------------------------------------------
 Center     Atomic      Atomic             Coordinates (Angstroms)
 Number     Number       Type             X           Y           Z
 ---------------------------------------------------------------------
      1          6           0       -0.000000    0.338334   -0.000000
      2          9           0       -0.000000    1.119197    1.076707
      3         17           0        1.465174   -0.652223   -0.000000
      4          9           0       -0.000000    1.119200   -1.076705
      5         17           0       -1.465174   -0.652223   -0.000000
 ---------------------------------------------------------------------
 Rotational constants (GHZ):           4.1167560           2.6025345           2.2083452
 Basis read from rwf:  (5D, 7F)
 There are   133 symmetry adapted cartesian basis functions of A   symmetry.
 There are   123 symmetry adapted basis functions of A   symmetry.
   123 basis functions,   275 primitive gaussians,   133 cartesian basis functions
    29 alpha electrons       29 beta electrons
       nuclear repulsion energy       303.6792848846 Hartrees.
 NAtoms=    5 NActive=    5 NUniq=    5 SFac= 1.00D+00 NAtFMM=   60 NAOKFM=F Big=F
 Integral buffers will be    131072 words long.
 Raffenetti 2 integral format.
 Two-electron integral symmetry is turned on.
 Nuclear repulsion after empirical dispersion term =      303.6787566890 Hartrees.
 One-electron integrals computed using PRISM.
 NBasis=   123 RedAO= T EigKep=  1.69D-03  NBF=   123
 NBsUse=   123 1.00D-06 EigRej= -1.00D+00 NBFU=   123
 Initial guess from the checkpoint file:  "checkpoint.chk"
 B after Tr=    -0.000000   -0.000000    0.000000
         Rot=    1.000000    0.000039    0.000001    0.000002 Ang=   0.00 deg.
 Keep R1 ints in memory in canonical form, NReq=62956768.
 Requested convergence on RMS density matrix=1.00D-08 within 128 cycles.
 Requested convergence on MAX density matrix=1.00D-06.
 Requested convergence on             energy=1.00D-06.
 No special actions if energy rises.
 SCF Done:  E(RwB97XD) =  -1158.07585432     A.U. after    6 cycles
            NFock=  6  Conv=0.71D-08     -V/T= 2.0012
 DoSCS=F DFT=T ScalE2(SS,OS)=  1.000000  1.000000
 Range of M.O.s used for correlation:     1   123
 NBasis=   123 NAE=    29 NBE=    29 NFC=     0 NFV=     0
 NROrb=    123 NOA=    29 NOB=    29 NVA=    94 NVB=    94

 **** Warning!!: The largest alpha MO coefficient is  0.11266817D+02

 Symmetrizing basis deriv contribution to polar:
 IMax=3 JMax=2 DiffMx= 0.00D+00
 G2DrvN: will do     6 centers at a time, making    1 passes.
 Calling FoFCou, ICntrl=  3107 FMM=F I1Cent=   0 AccDes= 0.00D+00.
 End of G2Drv F.D. properties file   721 does not exist.
 End of G2Drv F.D. properties file   722 does not exist.
 End of G2Drv F.D. properties file   788 does not exist.
          IDoAtm=11111
          Differentiating once with respect to electric field.
                with respect to dipole field.
          Differentiating once with respect to nuclear coordinates.
 Keep R1 ints in memory in canonical form, NReq=62947680.
          There are    18 degrees of freedom in the 1st order CPHF.  IDoFFX=6 NUNeed=     3.
     15 vectors produced by pass  0 Test12= 1.51D-14 5.56D-09 XBig12= 2.15D+01 2.38D+00.
 AX will form    15 AO Fock derivatives at one time.
     15 vectors produced by pass  1 Test12= 1.51D-14 5.56D-09 XBig12= 2.33D+00 3.98D-01.
     15 vectors produced by pass  2 Test12= 1.51D-14 5.56D-09 XBig12= 3.30D-01 1.15D-01.
     15 vectors produced by pass  3 Test12= 1.51D-14 5.56D-09 XBig12= 1.10D-02 3.69D-02.
     15 vectors produced by pass  4 Test12= 1.51D-14 5.56D-09 XBig12= 9.15D-05 2.81D-03.
     15 vectors produced by pass  5 Test12= 1.51D-14 5.56D-09 XBig12= 5.79D-07 1.91D-04.
     15 vectors produced by pass  6 Test12= 1.51D-14 5.56D-09 XBig12= 3.50D-09 1.43D-05.
      9 vectors produced by pass  7 Test12= 1.51D-14 5.56D-09 XBig12= 2.46D-11 1.04D-06.
      3 vectors produced by pass  8 Test12= 1.51D-14 5.56D-09 XBig12= 1.98D-13 1.07D-07.
      3 vectors produced by pass  9 Test12= 1.51D-14 5.56D-09 XBig12= 1.17D-15 7.65D-09.
 InvSVY:  IOpt=1 It=  1 EMax= 1.11D-15
 Solved reduced A of dimension   120 with    15 vectors.
 Isotropic polarizability for W=    0.000000       44.54 Bohr**3.
 End of Minotr F.D. properties file   721 does not exist.
 End of Minotr F.D. properties file   722 does not exist.
 End of Minotr F.D. properties file   788 does not exist.
 Calling FoFJK, ICntrl=    100127 FMM=F ISym2X=0 I1Cent= 0 IOpClX= 0 NMat=1 NMatS=1 NMatT=0.
 ***** Axes restored to original set *****
 -------------------------------------------------------------------
 Center     Atomic                   Forces (Hartrees/Bohr)
 Number     Number              X              Y              Z
 -------------------------------------------------------------------
      1        6           0.000000233   -0.000000155    0.000000114
      2        9          -0.000000037    0.000000062   -0.000000014
      3       17          -0.000000068    0.000000079    0.000000003
      4        9          -0.000000022    0.000000004   -0.000000058
      5       17          -0.000000105    0.000000010   -0.000000044
 -------------------------------------------------------------------
 Cartesian Forces:  Max     0.000000233 RMS     0.000000091
 -----------------------------------------------------------------------------------------------
                       Internal Coordinate Forces (Hartree/Bohr or radian)
  Cent   Atom   N1       Length/X         N2         Alpha/Y        N3         Beta/Z          J
 -----------------------------------------------------------------------------------------------
      1  C 
      2  F        1  -0.000000(     1)
      3  Cl       1  -0.000000(     2)      2   0.000000(     5)
      4  F        1   0.000000(     3)      2   0.000000(     6)      3  -0.000000(     8)     0
      5  Cl       1   0.000000(     4)      2   0.000000(     7)      3   0.000000(     9)     0
 -----------------------------------------------------------------------------------------------
 Internal  Forces:  Max     0.000000297 RMS     0.000000119

 GradGradGradGradGradGradGradGradGradGradGradGradGradGradGradGradGradGrad
 Berny optimization.
 Search for a local minimum.
 Step number   4 out of a maximum of   20
 All quantities printed in internal units (Hartrees-Bohrs-Radians)
 Second derivative matrix not updated -- analytic derivatives used.
 DE= -1.51D-08 DEPred=-1.51D-08 R= 1.00D+00
 Trust test= 1.00D+00 RLast= 3.93D-04 DXMaxT set to 3.00D-01
 The second derivative matrix:
                          r2        r3        a3        r4        a4
           r2           0.40672
           r3           0.03920   0.22636
           a3           0.07123   0.00395   0.42434
           r4           0.05358   0.03920  -0.03208   0.40672
           a4           0.08244  -0.03096   0.11078   0.01487   0.48926
           d4           0.00000  -0.05832   0.06902  -0.00000  -0.00000
           r5           0.03920   0.02804  -0.03267   0.03920  -0.03096
           a5           0.07123  -0.03267   0.11223  -0.03208   0.11078
           d5          -0.00145   0.05135  -0.07223  -0.06007   0.07569
                          d4        r5        a5        d5
           d4           0.41392
           r5           0.05832   0.22636
           a5          -0.06902   0.00395   0.42434
           d5          -0.20723  -0.00621  -0.00310   0.38157
 ITU=  0  1  1  0
     Eigenvalues ---    0.12229   0.15897   0.22947   0.30045   0.33161
     Eigenvalues ---    0.38183   0.48187   0.66654   0.72657
 RFO step:  Lambda= 0.00000000D+00 EMin= 1.22292574D-01
 Quintic linear search produced a step of  0.00116.
 Variable       Old X    -DE/DX   Delta X   Delta X   Delta X     New X
                                 (Linear)    (Quad)   (Total)
    r2        2.51344  -0.00000  -0.00000  -0.00000  -0.00000   2.51344
    r3        3.34217  -0.00000  -0.00000  -0.00000  -0.00000   3.34216
    a3        1.90585   0.00000   0.00000   0.00000   0.00000   1.90585
    r4        2.51344   0.00000   0.00000   0.00000   0.00000   2.51344
    a4        1.88667   0.00000  -0.00000   0.00000  -0.00000   1.88667
    d4        4.21163  -0.00000   0.00000   0.00000   0.00000   4.21163
    r5        3.34216   0.00000  -0.00000   0.00000   0.00000   3.34216
    a5        1.90585   0.00000   0.00000   0.00000   0.00000   1.90585
    d5        2.14007   0.00000   0.00000   0.00000   0.00000   2.14007
         Item               Value     Threshold  Converged?
 Maximum Force            0.000000     0.000002     YES
 RMS     Force            0.000000     0.000001     YES
 Maximum Displacement     0.000001     0.000006     YES
 RMS     Displacement     0.000000     0.000004     YES
 Predicted change in Energy=-2.131103D-13
 Optimization completed.
    -- Stationary point found.
                       ----------------------------
                       !   Optimized Parameters   !
                       ! (Angstroms and Degrees)  !
 ----------------------                            ----------------------
 !      Name          Value   Derivative information (Atomic Units)     !
 ------------------------------------------------------------------------
 !       r2          1.3301   -DE/DX =    0.0                           !
 !       r3          1.7686   -DE/DX =    0.0                           !
 !       a3        109.1971   -DE/DX =    0.0                           !
 !       r4          1.3301   -DE/DX =    0.0                           !
 !       a4        108.0981   -DE/DX =    0.0                           !
 !       d4        241.3085   -DE/DX =    0.0                           !
 !       r5          1.7686   -DE/DX =    0.0                           !
 !       a5        109.1971   -DE/DX =    0.0                           !
 !       d5        122.617    -DE/DX =    0.0                           !
 ------------------------------------------------------------------------
 GradGradGradGradGradGradGradGradGradGradGradGradGradGradGradGradGradGrad

 ---------------------------------------------------------------------------------------------------
                            Z-MATRIX (ANGSTROMS AND DEGREES)
   CD    Cent   Atom    N1       Length/X        N2       Alpha/Y        N3        Beta/Z          J
 ---------------------------------------------------------------------------------------------------
      1      1  C 
      2      2  F        1   1.330055(     1)
      3      3  Cl       1   1.768598(     2)      2  109.197(     5)
      4      4  F        1   1.330055(     3)      2  108.098(     6)      3  241.309(     8)      0
      5      5  Cl       1   1.768597(     4)      2  109.197(     7)      3  122.617(     9)      0
 ---------------------------------------------------------------------------------------------------
                         Z-Matrix orientation:                         
 ---------------------------------------------------------------------
 Center     Atomic      Atomic             Coordinates (Angstroms)
 Number     Number       Type             X           Y           Z
 ---------------------------------------------------------------------
      1          6           0        0.000000    0.000000    0.000000
      2          9           0        0.000000    0.000000    1.330055
      3         17           0        1.670252    0.000000   -0.581547
      4          9           0       -0.606958    1.109024   -0.413175
      5         17           0       -0.900301   -1.406839   -0.581547
 ---------------------------------------------------------------------
                    Distance matrix (angstroms):
                    1          2          3          4          5
     1  C    0.000000
     2  F    1.330055   0.000000
     3  Cl   1.768598   2.538496   0.000000
     4  F    1.330055   2.153412   2.538497   0.000000
     5  Cl   1.768597   2.538496   2.930348   2.538497   0.000000
 Stoichiometry    CCl2F2
 Framework group  C1[X(CCl2F2)]
 Deg. of freedom     9
 Full point group                 C1      NOp   1
 Largest Abelian subgroup         C1      NOp   1
 Largest concise Abelian subgroup C1      NOp   1
                         Standard orientation:                         
 ---------------------------------------------------------------------
 Center     Atomic      Atomic             Coordinates (Angstroms)
 Number     Number       Type             X           Y           Z
 ---------------------------------------------------------------------
      1          6           0       -0.000000    0.338334   -0.000000
      2          9           0       -0.000000    1.119197    1.076707
      3         17           0        1.465174   -0.652223   -0.000000
      4          9           0       -0.000000    1.119200   -1.076705
      5         17           0       -1.465174   -0.652223   -0.000000
 ---------------------------------------------------------------------
 Rotational constants (GHZ):           4.1167560           2.6025345           2.2083452

 **********************************************************************

            Population analysis using the SCF Density.

 **********************************************************************

 Orbital symmetries:
       Occupied  (A) (A) (A) (A) (A) (A) (A) (A) (A) (A) (A) (A)
                 (A) (A) (A) (A) (A) (A) (A) (A) (A) (A) (A) (A)
                 (A) (A) (A) (A) (A)
       Virtual   (A) (A) (A) (A) (A) (A) (A) (A) (A) (A) (A) (A)
                 (A) (A) (A) (A) (A) (A) (A) (A) (A) (A) (A) (A)
                 (A) (A) (A) (A) (A) (A) (A) (A) (A) (A) (A) (A)
                 (A) (A) (A) (A) (A) (A) (A) (A) (A) (A) (A) (A)
                 (A) (A) (A) (A) (A) (A) (A) (A) (A) (A) (A) (A)
                 (A) (A) (A) (A) (A) (A) (A) (A) (A) (A) (A) (A)
                 (A) (A) (A) (A) (A) (A) (A) (A) (A) (A) (A) (A)
                 (A) (A) (A) (A) (A) (A) (A) (A) (A) (A)
 The electronic state is 1-A.
 Alpha  occ. eigenvalues -- -101.71964-101.71964 -24.87854 -24.87851 -10.59531
 Alpha  occ. eigenvalues --   -9.62039  -9.62038  -7.36808  -7.36807  -7.35670
 Alpha  occ. eigenvalues --   -7.35670  -7.35666  -7.35666  -1.44652  -1.37853
 Alpha  occ. eigenvalues --   -1.02946  -0.97258  -0.80542  -0.71859  -0.68027
 Alpha  occ. eigenvalues --   -0.67632  -0.58292  -0.56640  -0.55567  -0.49871
 Alpha  occ. eigenvalues --   -0.46564  -0.45128  -0.43297  -0.42066
 Alpha virt. eigenvalues --    0.02674   0.06468   0.06601   0.08217   0.08584
 Alpha virt. eigenvalues --    0.08602   0.12482   0.12491   0.13211   0.13568
 Alpha virt. eigenvalues --    0.14189   0.16468   0.16745   0.20051   0.21413
 Alpha virt. eigenvalues --    0.23118   0.23351   0.26324   0.26863   0.27190
 Alpha virt. eigenvalues --    0.28163   0.28539   0.29620   0.32332   0.32594
 Alpha virt. eigenvalues --    0.35509   0.37013   0.37136   0.37572   0.38954
 Alpha virt. eigenvalues --    0.39168   0.43817   0.44073   0.44777   0.44866
 Alpha virt. eigenvalues --    0.48241   0.49100   0.54678   0.56083   0.67330
 Alpha virt. eigenvalues --    0.69762   0.72828   0.73728   0.75282   0.76937
 Alpha virt. eigenvalues --    0.78262   0.81821   0.82616   0.82966   0.84169
 Alpha virt. eigenvalues --    0.87594   0.93197   0.95493   0.98238   0.99068
 Alpha virt. eigenvalues --    0.99158   0.99534   1.00184   1.01047   1.01830
 Alpha virt. eigenvalues --    1.02221   1.02353   1.06238   1.11426   1.11697
 Alpha virt. eigenvalues --    1.18413   1.20896   1.21409   1.40734   1.46566
 Alpha virt. eigenvalues --    1.48050   1.51950   1.68887   1.69472   1.88332
 Alpha virt. eigenvalues --    1.93438   1.95006   2.01868   2.06263   2.15728
 Alpha virt. eigenvalues --    2.22228   2.25005   2.71219   2.78870   2.82283
 Alpha virt. eigenvalues --    2.84811   2.85369   2.89609   2.93438   2.99174
 Alpha virt. eigenvalues --    3.04462   3.23720   3.57704   3.62146
          Condensed to atoms (all electrons):
               1          2          3          4          5
     1  C    4.791876  -0.303761   0.149896  -0.303762   0.149896
     2  F   -0.303761  10.140335  -0.129077  -0.121878  -0.129077
     3  Cl   0.149896  -0.129077  17.659253  -0.129077  -0.249607
     4  F   -0.303762  -0.121878  -0.129077  10.140334  -0.129077
     5  Cl   0.149896  -0.129077  -0.249607  -0.129077  17.659253
 Mulliken charges:
               1
     1  C    1.515856
     2  F   -0.456541
     3  Cl  -0.301387
     4  F   -0.456541
     5  Cl  -0.301387
 Sum of Mulliken charges =  -0.00000
 Mulliken charges with hydrogens summed into heavy atoms:
               1
     1  C    1.515856
     2  F   -0.456541
     3  Cl  -0.301387
     4  F   -0.456541
     5  Cl  -0.301387
 APT charges:
               1
     1  C    1.725616
     2  F   -0.562864
     3  Cl  -0.299944
     4  F   -0.562864
     5  Cl  -0.299944
 Sum of APT charges =  -0.00000
 APT charges with hydrogens summed into heavy atoms:
               1
     1  C    1.725616
     2  F   -0.562864
     3  Cl  -0.299944
     4  F   -0.562864
     5  Cl  -0.299944
 Electronic spatial extent (au):  <R**2>=            559.8280
 Charge=             -0.0000 electrons
 Dipole moment (field-independent basis, Debye):
    X=             -0.0000    Y=             -0.3861    Z=             -0.0000  Tot=              0.3861
 Quadrupole moment (field-independent basis, Debye-Ang):
   XX=            -38.8253   YY=            -40.6270   ZZ=            -41.6575
   XY=              0.0000   XZ=              0.0000   YZ=             -0.0000
 Traceless Quadrupole moment (field-independent basis, Debye-Ang):
   XX=              1.5446   YY=             -0.2571   ZZ=             -1.2876
   XY=              0.0000   XZ=              0.0000   YZ=             -0.0000
 Octapole moment (field-independent basis, Debye-Ang**2):
  XXX=             -0.0000  YYY=              9.3902  ZZZ=              0.0000  XYY=             -0.0000
  XXY=             -1.8783  XXZ=              0.0000  XZZ=             -0.0000  YZZ=              3.2838
  YYZ=              0.0000  XYZ=             -0.0000
 Hexadecapole moment (field-independent basis, Debye-Ang**3):
 XXXX=           -336.0610 YYYY=           -179.4369 ZZZZ=           -107.9605 XXXY=              0.0000
 XXXZ=             -0.0000 YYYX=              0.0000 YYYZ=             -0.0000 ZZZX=             -0.0000
 ZZZY=             -0.0000 XXYY=            -81.3442 XXZZ=            -79.8592 YYZZ=            -48.5062
 XXYZ=             -0.0000 YYXZ=             -0.0000 ZZXY=              0.0000
 N-N= 3.036787566890D+02 E-N=-3.361300770772D+03  KE= 1.156737451729D+03
  Exact polarizability:      53.396      -0.000      42.159       0.000       0.000      38.074
 Approx polarizability:      56.399      -0.000      48.547      -0.000      -0.000      44.152
 Rotating derivatives to standard orientation.
 Full mass-weighted force constant matrix:
 Low frequencies ---   -5.9745   -0.0017    0.0027    0.0042    8.5965   10.2765
 Low frequencies ---  265.7236  324.7836  437.5042
 Diagonal vibrational polarizability:
       12.5306558       7.0438194       4.0503257
 Harmonic frequencies (cm**-1), IR intensities (KM/Mole), Raman scattering
 activities (A**4/AMU), depolarization ratios for plane and unpolarized
 incident light, reduced masses (AMU), force constants (mDyne/A),
 and normal coordinates:
                      1                      2                      3
                      A                      A                      A
 Frequencies --    265.7236               324.7834               437.5037
 Red. masses --     27.1545                21.1941                18.5606
 Frc consts  --      1.1297                 1.3172                 2.0932
 IR Inten    --      0.0630                 0.0000                 0.1100
  Atom  AN      X      Y      Z        X      Y      Z        X      Y      Z
     1   6    -0.00  -0.30  -0.00    -0.00  -0.00   0.00    -0.00   0.00  -0.52
     2   9     0.00  -0.42   0.08    -0.66   0.00   0.00     0.00  -0.52  -0.23
     3  17     0.44   0.28   0.00    -0.00   0.00  -0.26     0.00   0.00   0.21
     4   9    -0.00  -0.42  -0.08     0.66  -0.00   0.00     0.00   0.52  -0.23
     5  17    -0.44   0.28   0.00    -0.00  -0.00   0.26    -0.00  -0.00   0.21
                      4                      5                      6
                      A                      A                      A
 Frequencies --    440.3813               460.2974               673.3654
 Red. masses --     25.5764                25.5540                18.2303
 Frc consts  --      2.9225                 3.1900                 4.8702
 IR Inten    --      0.0077                 0.1483                11.6698
  Atom  AN      X      Y      Z        X      Y      Z        X      Y      Z
     1   6    -0.04  -0.00   0.00     0.00  -0.01  -0.00    -0.00   0.53   0.00
     2   9     0.54   0.00   0.00    -0.00  -0.42   0.35     0.00   0.09   0.56
     3  17    -0.29   0.35  -0.00    -0.39   0.23   0.00     0.14  -0.14  -0.00
     4   9     0.54  -0.00  -0.00    -0.00  -0.42  -0.35     0.00   0.09  -0.56
     5  17    -0.29  -0.35  -0.00     0.39   0.23   0.00    -0.14  -0.14  -0.00
                      7                      8                      9
                      A                      A                      A
 Frequencies --    915.4392              1124.0503              1188.5360
 Red. masses --     12.7327                13.6432                13.3970
 Frc consts  --      6.2868                10.1563                11.1502
 IR Inten    --    390.1779               296.1789               211.7970
  Atom  AN      X      Y      Z        X      Y      Z        X      Y      Z
     1   6     0.97  -0.00   0.00     0.00   0.88   0.00    -0.00  -0.00   0.89
     2   9    -0.12   0.00   0.00    -0.00  -0.24  -0.24     0.00  -0.17  -0.26
     3  17    -0.10   0.03  -0.00     0.01  -0.02  -0.00    -0.00   0.00  -0.01
     4   9    -0.12   0.00  -0.00    -0.00  -0.24   0.24     0.00   0.17  -0.26
     5  17    -0.10  -0.03   0.00    -0.01  -0.02  -0.00     0.00   0.00  -0.01

 -------------------
 - Thermochemistry -
 -------------------
 Temperature   298.150 Kelvin.  Pressure   1.00000 Atm.
 Atom     1 has atomic number  6 and mass  12.00000
 Atom     2 has atomic number  9 and mass  18.99840
 Atom     3 has atomic number 17 and mass  34.96885
 Atom     4 has atomic number  9 and mass  18.99840
 Atom     5 has atomic number 17 and mass  34.96885
 Molecular mass:   119.93451 amu.
 Principal axes and moments of inertia in atomic units:
                           1         2         3
     Eigenvalues --   438.38916 693.45526 817.23691
           X            1.00000   0.00000   0.00000
           Y           -0.00000   1.00000   0.00000
           Z           -0.00000  -0.00000   1.00000
 This molecule is an asymmetric top.
 Rotational symmetry number  1.
 Warning -- assumption of classical behavior for rotation
           may cause significant error
 Rotational temperatures (Kelvin)      0.19757     0.12490     0.10598
 Rotational constants (GHZ):           4.11676     2.60253     2.20835
 Zero-point vibrational energy      34871.6 (Joules/Mol)
                                    8.33452 (Kcal/Mol)
 Warning -- explicit consideration of   5 degrees of freedom as
           vibrations may cause significant error
 Vibrational temperatures:    382.32   467.29   629.47   633.61   662.27
          (Kelvin)            968.82  1317.11  1617.26  1710.04
 
 Zero-point correction=                           0.013282 (Hartree/Particle)
 Thermal correction to Energy=                    0.017986
 Thermal correction to Enthalpy=                  0.018930
 Thermal correction to Gibbs Free Energy=        -0.015837
 Sum of electronic and zero-point Energies=          -1158.062572
 Sum of electronic and thermal Energies=             -1158.057868
 Sum of electronic and thermal Enthalpies=           -1158.056924
 Sum of electronic and thermal Free Energies=        -1158.091692
 
                     E (Thermal)             CV                S
                      KCal/Mol        Cal/Mol-Kelvin    Cal/Mol-Kelvin
 Total                   11.287             15.265             73.175
 Electronic               0.000              0.000              0.000
 Translational            0.889              2.981             40.260
 Rotational               0.889              2.981             27.010
 Vibrational              9.509              9.303              5.905
 Vibration     1          0.672              1.736              1.624
 Vibration     2          0.709              1.626              1.286
 Vibration     3          0.798              1.388              0.834
 Vibration     4          0.800              1.382              0.825
 Vibration     5          0.818              1.338              0.765
                       Q            Log10(Q)             Ln(Q)
 Total Bot       0.192629D+08          7.284721         16.773690
 Total V=0       0.247723D+14         13.393966         30.840745
 Vib (Bot)       0.209118D-05         -5.679608        -13.077780
 Vib (Bot)    1  0.728877D+00         -0.137346         -0.316250
 Vib (Bot)    2  0.577129D+00         -0.238727         -0.549690
 Vib (Bot)    3  0.395914D+00         -0.402399         -0.926558
 Vib (Bot)    4  0.392429D+00         -0.406239         -0.935400
 Vib (Bot)    5  0.369426D+00         -0.432472         -0.995804
 Vib (V=0)       0.268928D+01          0.429637          0.989275
 Vib (V=0)    1  0.138389D+01          0.141102          0.324898
 Vib (V=0)    2  0.126360D+01          0.101608          0.233961
 Vib (V=0)    3  0.113777D+01          0.056054          0.129068
 Vib (V=0)    4  0.113561D+01          0.055229          0.127170
 Vib (V=0)    5  0.112167D+01          0.049866          0.114820
 Electronic      0.100000D+01          0.000000          0.000000
 Translational   0.516262D+08          7.712870         17.759540
 Rotational      0.178426D+06          5.251459         12.091931
 ***** Axes restored to original set *****
 -------------------------------------------------------------------
 Center     Atomic                   Forces (Hartrees/Bohr)
 Number     Number              X              Y              Z
 -------------------------------------------------------------------
      1        6           0.000000233   -0.000000155    0.000000114
      2        9          -0.000000037    0.000000062   -0.000000014
      3       17          -0.000000068    0.000000079    0.000000003
      4        9          -0.000000022    0.000000004   -0.000000058
      5       17          -0.000000105    0.000000010   -0.000000044
 -------------------------------------------------------------------
 Cartesian Forces:  Max     0.000000233 RMS     0.000000091
 -----------------------------------------------------------------------------------------------
                       Internal Coordinate Forces (Hartree/Bohr or radian)
  Cent   Atom   N1       Length/X         N2         Alpha/Y        N3         Beta/Z          J
 -----------------------------------------------------------------------------------------------
      1  C 
      2  F        1  -0.000000(     1)
      3  Cl       1  -0.000000(     2)      2   0.000000(     5)
      4  F        1   0.000000(     3)      2   0.000000(     6)      3  -0.000000(     8)     0
      5  Cl       1   0.000000(     4)      2   0.000000(     7)      3   0.000000(     9)     0
 -----------------------------------------------------------------------------------------------
 Internal  Forces:  Max     0.000000297 RMS     0.000000119

 ----------------------------------------------------------------------

 Electric dipole moment (input orientation):
 (Debye = 10**-18 statcoulomb cm , SI units = C m)
                  (au)            (Debye)         (10**-30 SI)
   Tot        0.151887D+00      0.386057D+00      0.128775D+01
   x          0.590291D-01      0.150037D+00      0.500469D+00
   y         -0.107859D+00     -0.274149D+00     -0.914463D+00
   z         -0.891719D-01     -0.226652D+00     -0.756031D+00

 Dipole polarizability, Alpha (input orientation).
 (esu units = cm**3 , SI units = C**2 m**2 J**-1)
 Alpha(0;0):
               (au)            (10**-24 esu)      (10**-40 SI)
   iso        0.445430D+02      0.660059D+01      0.734415D+01
   aniso      0.137433D+02      0.203654D+01      0.226596D+01
   xx         0.504817D+02      0.748062D+01      0.832331D+01
   yx         0.532565D+01      0.789180D+00      0.878082D+00
   yy         0.436655D+02      0.647056D+01      0.719946D+01
   zx        -0.932081D+00     -0.138120D+00     -0.153679D+00
   zy         0.170308D+01      0.252370D+00      0.280800D+00
   zz         0.394818D+02      0.585060D+01      0.650967D+01

 ----------------------------------------------------------------------

 Dipole orientation:
     6          0.00000000          0.00000000         -0.00000000
     9          0.97682145          1.78485838         -1.47562852
    17          2.42883731         -1.32926114          1.87186649
     9         -0.97683942         -1.78486023         -1.47561346
    17         -2.42881073          1.32926727          1.87189523

 Electric dipole moment (dipole orientation):
 (Debye = 10**-18 statcoulomb cm , SI units = C m)
                  (au)            (Debye)         (10**-30 SI)
   Tot        0.151887D+00      0.386057D+00      0.128775D+01
   x          0.000000D+00      0.000000D+00      0.000000D+00
   y          0.000000D+00      0.000000D+00      0.000000D+00
   z          0.151887D+00      0.386057D+00      0.128775D+01

 Dipole polarizability, Alpha (dipole orientation).
 (esu units = cm**3 , SI units = C**2 m**2 J**-1)
 Alpha(0;0):
               (au)            (10**-24 esu)      (10**-40 SI)
   iso        0.445430D+02      0.660059D+01      0.734415D+01
   aniso      0.137433D+02      0.203654D+01      0.226596D+01
   xx         0.498647D+02      0.738919D+01      0.822159D+01
   yx        -0.645305D+01     -0.956243D+00     -0.106396D+01
   yy         0.416055D+02      0.616529D+01      0.685981D+01
   zx        -0.396283D-04     -0.587230D-05     -0.653382D-05
[...]
   XX=              1.5446   YY=             -0.2571   ZZ=             -1.2876
   XY=              0.0000   XZ=              0.0000   YZ=             -0.0000
 Octapole moment (field-independent basis, Debye-Ang**2):
  XXX=             -0.0000  YYY=              9.3902  ZZZ=              0.0000  XYY=             -0.0000
  XXY=             -1.8783  XXZ=              0.0000  XZZ=             -0.0000  YZZ=              3.2838
  YYZ=              0.0000  XYZ=             -0.0000
 Hexadecapole moment (field-independent basis, Debye-Ang**3):
 XXXX=           -336.0610 YYYY=           -179.4369 ZZZZ=           -107.9605 XXXY=              0.0000
 XXXZ=             -0.0000 YYYX=              0.0000 YYYZ=             -0.0000 ZZZX=             -0.0000
 ZZZY=             -0.0000 XXYY=            -81.3442 XXZZ=            -79.8592 YYZZ=            -48.5062
 XXYZ=             -0.0000 YYXZ=             -0.0000 ZZXY=              0.0000
 N-N= 3.036787566890D+02 E-N=-3.361300772790D+03  KE= 1.156737452589D+03
  Exact polarizability:      53.396      -0.000      42.159       0.000       0.000      38.074
 Approx polarizability:      56.399      -0.000      48.547      -0.000      -0.000      44.152
 Calling FoFJK, ICntrl=    100127 FMM=F ISym2X=0 I1Cent= 0 IOpClX= 0 NMat=1 NMatS=1 NMatT=0.
 Full mass-weighted force constant matrix:
 Low frequencies ---   -5.9746   -0.0067   -0.0064   -0.0055    8.5966   10.2767
 Low frequencies ---  265.7236  324.7836  437.5042
 Diagonal vibrational polarizability:
       12.5306551       7.0438227       4.0503278
 Harmonic frequencies (cm**-1), IR intensities (KM/Mole), Raman scattering
 activities (A**4/AMU), depolarization ratios for plane and unpolarized
 incident light, reduced masses (AMU), force constants (mDyne/A),
 and normal coordinates:
                      1                      2                      3
                      A                      A                      A
 Frequencies --    265.7236               324.7834               437.5037
 Red. masses --     27.1545                21.1941                18.5606
 Frc consts  --      1.1297                 1.3172                 2.0932
 IR Inten    --      0.0630                 0.0000                 0.1100
  Atom  AN      X      Y      Z        X      Y      Z        X      Y      Z
     1   6    -0.00  -0.30  -0.00    -0.00  -0.00   0.00    -0.00   0.00  -0.52
     2   9     0.00  -0.42   0.08    -0.66   0.00   0.00     0.00  -0.52  -0.23
     3  17     0.44   0.28   0.00    -0.00   0.00  -0.26     0.00   0.00   0.21
     4   9    -0.00  -0.42  -0.08     0.66  -0.00   0.00     0.00   0.52  -0.23
     5  17    -0.44   0.28   0.00    -0.00  -0.00   0.26    -0.00  -0.00   0.21
                      4                      5                      6
                      A                      A                      A
 Frequencies --    440.3813               460.2975               673.3655
 Red. masses --     25.5764                25.5540                18.2303
 Frc consts  --      2.9225                 3.1900                 4.8702
 IR Inten    --      0.0077                 0.1483                11.6698
  Atom  AN      X      Y      Z        X      Y      Z        X      Y      Z
     1   6    -0.04  -0.00   0.00     0.00  -0.01  -0.00    -0.00   0.53   0.00
     2   9     0.54   0.00   0.00    -0.00  -0.42   0.35     0.00   0.09   0.56
     3  17    -0.29   0.35  -0.00    -0.39   0.23   0.00     0.14  -0.14  -0.00
     4   9     0.54  -0.00  -0.00    -0.00  -0.42  -0.35     0.00   0.09  -0.56
     5  17    -0.29  -0.35  -0.00     0.39   0.23   0.00    -0.14  -0.14  -0.00
                      7                      8                      9
                      A                      A                      A
 Frequencies --    915.4392              1124.0501              1188.5358
 Red. masses --     12.7327                13.6432                13.3970
 Frc consts  --      6.2868                10.1563                11.1502
 IR Inten    --    390.1779               296.1790               211.7971
  Atom  AN      X      Y      Z        X      Y      Z        X      Y      Z
     1   6     0.97  -0.00   0.00     0.00   0.88   0.00    -0.00  -0.00   0.89
     2   9    -0.12   0.00   0.00    -0.00  -0.24  -0.24     0.00  -0.17  -0.26
     3  17    -0.10   0.03  -0.00     0.01  -0.02  -0.00    -0.00   0.00  -0.01
     4   9    -0.12   0.00  -0.00    -0.00  -0.24   0.24     0.00   0.17  -0.26
     5  17    -0.10  -0.03   0.00    -0.01  -0.02  -0.00     0.00   0.00  -0.01

 -------------------
 - Thermochemistry -
 -------------------
 Temperature   298.150 Kelvin.  Pressure   1.00000 Atm.
 Atom     1 has atomic number  6 and mass  12.00000
 Atom     2 has atomic number  9 and mass  18.99840
 Atom     3 has atomic number 17 and mass  34.96885
 Atom     4 has atomic number  9 and mass  18.99840
 Atom     5 has atomic number 17 and mass  34.96885
 Molecular mass:   119.93451 amu.
 Principal axes and moments of inertia in atomic units:
                           1         2         3
     Eigenvalues --   438.38916 693.45526 817.23691
           X            1.00000   0.00000   0.00000
           Y           -0.00000   1.00000   0.00000
           Z           -0.00000  -0.00000   1.00000
 This molecule is an asymmetric top.
 Rotational symmetry number  1.
 Warning -- assumption of classical behavior for rotation
           may cause significant error
 Rotational temperatures (Kelvin)      0.19757     0.12490     0.10598
 Rotational constants (GHZ):           4.11676     2.60253     2.20835
 Zero-point vibrational energy      34871.6 (Joules/Mol)
                                    8.33452 (Kcal/Mol)
 Warning -- explicit consideration of   5 degrees of freedom as
           vibrations may cause significant error
 Vibrational temperatures:    382.32   467.29   629.47   633.61   662.27
          (Kelvin)            968.82  1317.11  1617.26  1710.04
 
 Zero-point correction=                           0.013282 (Hartree/Particle)
 Thermal correction to Energy=                    0.017986
 Thermal correction to Enthalpy=                  0.018930
 Thermal correction to Gibbs Free Energy=        -0.015837
 Sum of electronic and zero-point Energies=          -1158.062572
 Sum of electronic and thermal Energies=             -1158.057868
 Sum of electronic and thermal Enthalpies=           -1158.056924
 Sum of electronic and thermal Free Energies=        -1158.091692
 
                     E (Thermal)             CV                S
                      KCal/Mol        Cal/Mol-Kelvin    Cal/Mol-Kelvin
 Total                   11.287             15.265             73.175
 Electronic               0.000              0.000              0.000
 Translational            0.889              2.981             40.260
 Rotational               0.889              2.981             27.010
 Vibrational              9.509              9.303              5.905
 Vibration     1          0.672              1.736              1.624
 Vibration     2          0.709              1.626              1.286
 Vibration     3          0.798              1.388              0.834
 Vibration     4          0.800              1.382              0.825
 Vibration     5          0.818              1.338              0.765
                       Q            Log10(Q)             Ln(Q)
 Total Bot       0.192629D+08          7.284721         16.773690
 Total V=0       0.247723D+14         13.393966         30.840745
 Vib (Bot)       0.209118D-05         -5.679608        -13.077780
 Vib (Bot)    1  0.728877D+00         -0.137346         -0.316250
 Vib (Bot)    2  0.577129D+00         -0.238727         -0.549690
 Vib (Bot)    3  0.395914D+00         -0.402399         -0.926559
 Vib (Bot)    4  0.392429D+00         -0.406239         -0.935400
 Vib (Bot)    5  0.369426D+00         -0.432472         -0.995804
 Vib (V=0)       0.268928D+01          0.429637          0.989275
 Vib (V=0)    1  0.138389D+01          0.141102          0.324898
 Vib (V=0)    2  0.126360D+01          0.101608          0.233961
 Vib (V=0)    3  0.113777D+01          0.056054          0.129068
 Vib (V=0)    4  0.113561D+01          0.055229          0.127170
 Vib (V=0)    5  0.112167D+01          0.049866          0.114820
 Electronic      0.100000D+01          0.000000          0.000000
 Translational   0.516262D+08          7.712870         17.759540
 Rotational      0.178426D+06          5.251459         12.091931
 ***** Axes restored to original set *****
 -------------------------------------------------------------------
 Center     Atomic                   Forces (Hartrees/Bohr)
 Number     Number              X              Y              Z
 -------------------------------------------------------------------
      1        6           0.000000198   -0.000000102    0.000000184
      2        9          -0.000000028    0.000000046   -0.000000046
      3       17          -0.000000078    0.000000077   -0.000000014
      4        9           0.000000002   -0.000000040   -0.000000065
      5       17          -0.000000095    0.000000019   -0.000000059
 -------------------------------------------------------------------
 Cartesian Forces:  Max     0.000000198 RMS     0.000000089
 -----------------------------------------------------------------------------------------------
                       Internal Coordinate Forces (Hartree/Bohr or radian)
  Cent   Atom   N1       Length/X         N2         Alpha/Y        N3         Beta/Z          J
 -----------------------------------------------------------------------------------------------
      1  C 
      2  F        1  -0.000000(     1)
      3  Cl       1  -0.000000(     2)      2   0.000000(     5)
      4  F        1  -0.000000(     3)      2   0.000000(     6)      3  -0.000000(     8)     0
      5  Cl       1   0.000000(     4)      2   0.000000(     7)      3   0.000000(     9)     0
 -----------------------------------------------------------------------------------------------
 Internal  Forces:  Max     0.000000285 RMS     0.000000135

 GradGradGradGradGradGradGradGradGradGradGradGradGradGradGradGradGradGrad
 Berny optimization.
 Search for a local minimum.
 Step number   1 out of a maximum of    2
 All quantities printed in internal units (Hartrees-Bohrs-Radians)
 Second derivative matrix not updated -- analytic derivatives used.
 The second derivative matrix:
                          r2        r3        a3        r4        a4
           r2           0.40672
           r3           0.03920   0.22636
           a3           0.07123   0.00395   0.42434
           r4           0.05358   0.03920  -0.03208   0.40672
           a4           0.08244  -0.03096   0.11078   0.01487   0.48926
           d4           0.00000  -0.05832   0.06902  -0.00000  -0.00000
           r5           0.03920   0.02804  -0.03267   0.03920  -0.03096
           a5           0.07123  -0.03267   0.11223  -0.03208   0.11078
           d5          -0.00145   0.05135  -0.07223  -0.06007   0.07569
                          d4        r5        a5        d5
           d4           0.41392
           r5           0.05832   0.22636
           a5          -0.06902   0.00395   0.42434
           d5          -0.20723  -0.00621  -0.00310   0.38157
 ITU=  0
     Eigenvalues ---    0.12229   0.15897   0.22947   0.30045   0.33161
     Eigenvalues ---    0.38183   0.48187   0.66654   0.72657
 Angle between quadratic step and forces=  90.00 degrees.
 Linear search not attempted -- first point.
 Variable       Old X    -DE/DX   Delta X   Delta X   Delta X     New X
                                 (Linear)    (Quad)   (Total)
    r2        2.51344  -0.00000   0.00000  -0.00000  -0.00000   2.51344
    r3        3.34217  -0.00000   0.00000  -0.00000  -0.00000   3.34217
    a3        1.90585   0.00000   0.00000   0.00000   0.00000   1.90585
    r4        2.51344  -0.00000   0.00000   0.00000   0.00000   2.51344
    a4        1.88667   0.00000   0.00000   0.00000   0.00000   1.88667
    d4        4.21163  -0.00000   0.00000   0.00000   0.00000   4.21163
    r5        3.34216   0.00000   0.00000   0.00000   0.00000   3.34217
    a5        1.90585   0.00000   0.00000   0.00000   0.00000   1.90585
    d5        2.14007   0.00000   0.00000   0.00000   0.00000   2.14007
         Item               Value     Threshold  Converged?
 Maximum Force            0.000000     0.000002     YES
 RMS     Force            0.000000     0.000001     YES
 Maximum Displacement     0.000001     0.000006     YES
 RMS     Displacement     0.000000     0.000004     YES
 Predicted change in Energy=-2.340228D-13
 Optimization completed.
    -- Stationary point found.
                       ----------------------------
                       !   Optimized Parameters   !
                       ! (Angstroms and Degrees)  !
 ----------------------                            ----------------------
 !      Name          Value   Derivative information (Atomic Units)     !
 ------------------------------------------------------------------------
 !       r2          1.3301   -DE/DX =    0.0                           !
 !       r3          1.7686   -DE/DX =    0.0                           !
 !       a3        109.1971   -DE/DX =    0.0                           !
 !       r4          1.3301   -DE/DX =    0.0                           !
 !       a4        108.0981   -DE/DX =    0.0                           !
 !       d4        241.3085   -DE/DX =    0.0                           !
 !       r5          1.7686   -DE/DX =    0.0                           !
 !       a5        109.1971   -DE/DX =    0.0                           !
 !       d5        122.617    -DE/DX =    0.0                           !
 ------------------------------------------------------------------------
 GradGradGradGradGradGradGradGradGradGradGradGradGradGradGradGradGradGrad


 ----------------------------------------------------------------------

 Electric dipole moment (input orientation):
 (Debye = 10**-18 statcoulomb cm , SI units = C m)
                  (au)            (Debye)         (10**-30 SI)
   Tot        0.151886D+00      0.386055D+00      0.128774D+01
   x          0.590288D-01      0.150036D+00      0.500467D+00
   y         -0.107858D+00     -0.274148D+00     -0.914459D+00
   z         -0.891715D-01     -0.226651D+00     -0.756028D+00

 Dipole polarizability, Alpha (input orientation).
 (esu units = cm**3 , SI units = C**2 m**2 J**-1)
 Alpha(0;0):
               (au)            (10**-24 esu)      (10**-40 SI)
   iso        0.445430D+02      0.660059D+01      0.734415D+01
   aniso      0.137433D+02      0.203654D+01      0.226596D+01
   xx         0.504817D+02      0.748062D+01      0.832331D+01
   yx         0.532565D+01      0.789180D+00      0.878082D+00
   yy         0.436655D+02      0.647055D+01      0.719946D+01
   zx        -0.932081D+00     -0.138120D+00     -0.153679D+00
   zy         0.170308D+01      0.252370D+00      0.280800D+00
   zz         0.394818D+02      0.585060D+01      0.650967D+01

 ----------------------------------------------------------------------

 Dipole orientation:
     6          0.00000000          0.00000000         -0.00000000
     9          0.97682139          1.78485763         -1.47562946
    17          2.42883744         -1.32926043          1.87186684
     9         -0.97683970         -1.78486085         -1.47561253
    17         -2.42881044          1.32926829          1.87189489

 Electric dipole moment (dipole orientation):
 (Debye = 10**-18 statcoulomb cm , SI units = C m)
                  (au)            (Debye)         (10**-30 SI)
   Tot        0.151886D+00      0.386055D+00      0.128774D+01
   x          0.000000D+00      0.000000D+00      0.000000D+00
   y          0.000000D+00      0.000000D+00      0.000000D+00
   z          0.151886D+00      0.386055D+00      0.128774D+01

 Dipole polarizability, Alpha (dipole orientation).
 (esu units = cm**3 , SI units = C**2 m**2 J**-1)
 Alpha(0;0):
               (au)            (10**-24 esu)      (10**-40 SI)
   iso        0.445430D+02      0.660059D+01      0.734415D+01
   aniso      0.137433D+02      0.203654D+01      0.226596D+01
   xx         0.498647D+02      0.738919D+01      0.822159D+01
   yx        -0.645305D+01     -0.956243D+00     -0.106396D+01
   yy         0.416054D+02      0.616529D+01      0.685981D+01
   zx        -0.373639D-04     -0.553675D-05     -0.616047D-05
   zy         0.449251D-04      0.665721D-05      0.740714D-05
   zz         0.421588D+02      0.624729D+01      0.695105D+01

 ----------------------------------------------------------------------
 Unable to Open any file for archive entry.
 1\1\GINC-GADI-CPU-CLX-1816\Freq\RwB97XD\Gen\C1Cl2F2\PK8622\30-Jul-2020
 \1\\#N Geom=AllCheck Guess=TCheck SCRF=Check GenChk RwB97XD/ChkBas Fre
 q\\CFC-12 - CCl2F2 HARMONIC FREQUENCIES\\0,1\C\F,1,r2\Cl,1,r3,2,a3\F,1
 ,r4,2,a4,3,d4,0\Cl,1,r5,2,a5,3,d5,0\\r2=1.33005501\r3=1.7685978\a3=109
 .19706258\r4=1.33005472\a4=108.0981179\d4=241.30853447\r5=1.76859739\a
 5=109.19707089\d5=122.61704212\\Version=ES64L-G16RevC.01\State=1-A\HF=
 -1158.0758543\RMSD=2.903e-09\RMSF=8.926e-08\ZeroPoint=0.0132819\Therma
 l=0.0179862\ETot=-1158.0578681\HTot=-1158.0569239\GTot=-1158.0916918\D
 ipole=0.0590288,-0.107858,-0.0891715\DipoleDeriv=1.963325,0.1948796,-0
 .0790471,0.1948795,1.7139001,0.1444335,-0.0790473,0.1444338,1.4996231,
 -0.3726567,-0.0595759,0.0520295,-0.0595759,-0.2964059,-0.0950675,0.067
 6355,-0.1235821,-1.0195303,-0.6838169,-0.0935525,0.1613321,-0.0934108,
 -0.1075331,-0.0043832,0.1614219,-0.0043339,-0.1084814,-0.5469987,0.258
 9791,-0.051045,0.2589793,-0.878464,0.0932686,-0.0666506,0.1217827,-0.2
 631301,-0.3598526,-0.3007303,-0.0832696,-0.300872,-0.431497,-0.1382515
 ,-0.0833595,-0.1383005,-0.1084813\Polar=50.4817346,5.3256529,43.665468
 5,-0.9320812,1.70308,39.4817886\Quadrupole=0.778788,-0.0855822,-0.6932
 058,0.6753476,-0.1748153,0.3194208\PG=C01 [X(C1Cl2F2)]\NImag=0\\0.3639
 6367,-0.04347486,0.41960725,0.01106446,-0.02021655,0.45846340,-0.06775
 721,0.00061751,0.00929812,0.07365497,0.00061751,-0.06854757,-0.0169893
 5,-0.00207551,0.07631144,0.00249634,-0.00456130,-0.29287021,0.00284018
 ,-0.00518951,0.40672402,-0.11432269,-0.00545040,0.02463965,-0.01533114
 ,-0.00060846,0.03001091,0.20526058,-0.00954685,-0.03634545,0.00157528,
 0.00118504,0.00881586,-0.00046055,-0.00176157,0.03830105,0.02203355,0.
 00014897,-0.04117350,0.03907616,0.00103412,-0.03301533,-0.05942287,0.0
 0092436,0.05909010,-0.11607345,0.08890012,-0.03039401,0.00737150,0.012
 01201,-0.01955883,-0.04343159,0.03421567,0.00037165,0.14142060,0.08890
 011,-0.22985608,0.05553541,0.01201201,-0.00800259,0.03573757,0.0254176
 7,-0.00527533,-0.00096293,-0.12589590,0.30255386,-0.02359226,0.0431073
 8,-0.08324615,-0.02928053,0.05350090,-0.04782312,0.00269873,-0.0031560
 2,0.00917642,0.04897045,-0.08947798,0.11271643,-0.06581032,-0.04059238
 ,-0.01460822,0.00206187,-0.00994554,-0.01578861,-0.03217517,-0.0240922
 8,-0.00205849,0.01071294,-0.00043390,0.00120362,0.08521068,-0.03649590
 ,-0.08485815,-0.01990479,-0.01173905,-0.00857714,-0.02552621,-0.017597
 24,-0.00549612,-0.00114452,-0.00923190,-0.05941985,-0.00397428,0.07506
 410,0.15835127,-0.01200210,-0.01847850,-0.04117354,-0.02193393,-0.0323
 5615,-0.03301535,0.00207359,0.00111693,0.00592230,0.00061074,-0.000832
 08,0.00917642,0.03125170,0.05054980,0.05909016\\-0.00000020,0.00000010
 ,-0.00000018,0.00000003,-0.00000005,0.00000005,0.00000008,-0.00000008,
 0.00000001,0.,0.00000004,0.00000007,0.00000010,-0.00000002,0.00000006\
 \\@
 The archive entry for this job was punched.


 MAN IS THE MEASURE OF ALL THINGS.
  -- PROTAGORAS (5TH CENTURY B.C.)
 Job cpu time:       0 days  0 hours  3 minutes  8.6 seconds.
 Elapsed time:       0 days  0 hours  1 minutes 34.4 seconds.
 File lengths (MBytes):  RWF=     17 Int=      0 D2E=      0 Chk=      2 Scr=      1
 Normal termination of Gaussian 16 at Thu Jul 30 11:28:32 2020.
