 Entering Gaussian System, Link 0=g16
 Input=CFC-114.gjf
 Output=CFC-114.log
 Initial command:
 /apps/gaussian/g16c01/g16/l1.exe "/jobfs/9171156.gadi-pbs/Gau-2011615.inp" -scrdir="/jobfs/9171156.gadi-pbs/"
 Entering Link 1 = /apps/gaussian/g16c01/g16/l1.exe PID=   2011616.
  
 Copyright (c) 1988-2019, Gaussian, Inc.  All Rights Reserved.
  
 This is part of the Gaussian(R) 16 program.  It is based on
 the Gaussian(R) 09 system (copyright 2009, Gaussian, Inc.),
 the Gaussian(R) 03 system (copyright 2003, Gaussian, Inc.),
 the Gaussian(R) 98 system (copyright 1998, Gaussian, Inc.),
 the Gaussian(R) 94 system (copyright 1995, Gaussian, Inc.),
 the Gaussian 92(TM) system (copyright 1992, Gaussian, Inc.),
 the Gaussian 90(TM) system (copyright 1990, Gaussian, Inc.),
 the Gaussian 88(TM) system (copyright 1988, Gaussian, Inc.),
 the Gaussian 86(TM) system (copyright 1986, Carnegie Mellon
 University), and the Gaussian 82(TM) system (copyright 1983,
 Carnegie Mellon University). Gaussian is a federally registered
 trademark of Gaussian, Inc.
  
 This software contains proprietary and confidential information,
 including trade secrets, belonging to Gaussian, Inc.
  
 This software is provided under written license and may be
 used, copied, transmitted, or stored only in accord with that
 written license.
  
 The following legend is applicable only to US Government
 contracts under FAR:
  
                    RESTRICTED RIGHTS LEGEND
  
 Use, reproduction and disclosure by the US Government is
 subject to restrictions as set forth in subparagraphs (a)
 and (c) of the Commercial Computer Software - Restricted
 Rights clause in FAR 52.227-19.
  
 Gaussian, Inc.
 340 Quinnipiac St., Bldg. 40, Wallingford CT 06492
  
  
 ---------------------------------------------------------------
 Warning -- This program may not be used in any manner that
 competes with the business of Gaussian, Inc. or will provide
 assistance to any competitor of Gaussian, Inc.  The licensee
 of this program is prohibited from giving any competitor of
 Gaussian, Inc. access to this program.  By using this program,
 the user acknowledges that Gaussian, Inc. is engaged in the
 business of creating and licensing software in the field of
 computational chemistry and represents and warrants to the
 licensee that it is not a competitor of Gaussian, Inc. and that
 it will not use this program in any manner prohibited above.
 ---------------------------------------------------------------
  

 Cite this work as:
 Gaussian 16, Revision C.01,
 M. J. Frisch, G. W. Trucks, H. B. Schlegel, G. E. Scuseria, 
 M. A. Robb, J. R. Cheeseman, G. Scalmani, V. Barone, 
 G. A. Petersson, H. Nakatsuji, X. Li, M. Caricato, A. V. Marenich, 
 J. Bloino, B. G. Janesko, R. Gomperts, B. Mennucci, H. P. Hratchian, 
 J. V. Ortiz, A. F. Izmaylov, J. L. Sonnenberg, D. Williams-Young, 
 F. Ding, F. Lipparini, F. Egidi, J. Goings, B. Peng, A. Petrone, 
 T. Henderson, D. Ranasinghe, V. G. Zakrzewski, J. Gao, N. Rega, 
 G. Zheng, W. Liang, M. Hada, M. Ehara, K. Toyota, R. Fukuda, 
 J. Hasegawa, M. Ishida, T. Nakajima, Y. Honda, O. Kitao, H. Nakai, 
 T. Vreven, K. Throssell, J. A. Montgomery, Jr., J. E. Peralta, 
 F. Ogliaro, M. J. Bearpark, J. J. Heyd, E. N. Brothers, K. N. Kudin, 
 V. N. Staroverov, T. A. Keith, R. Kobayashi, J. Normand, 
 K. Raghavachari, A. P. Rendell, J. C. Burant, S. S. Iyengar, 
 J. Tomasi, M. Cossi, J. M. Millam, M. Klene, C. Adamo, R. Cammi, 
 J. W. Ochterski, R. L. Martin, K. Morokuma, O. Farkas, 
 J. B. Foresman, and D. J. Fox, Gaussian, Inc., Wallingford CT, 2019.
 
 ******************************************
 Gaussian 16:  ES64L-G16RevC.01  3-Jul-2019
                30-Jul-2020 
 ******************************************
 %NprocShared=4
 Will use up to    4 processors via shared memory.
 %chk=checkpoint.chk
 ---------------------------------------------------------------
 # wB97xD/Gen Freq Opt=(VeryTight,ZMatrix,CalcAll) Int=UltraFine
 ---------------------------------------------------------------
 1/7=1,10=4,18=40,26=4,38=1/1,3;
 2/12=2,17=6,18=5,29=3,40=1/2;
 3/5=7,11=2,25=1,30=1,71=2,74=-58,75=-5,140=1/1,2,3;
 4//1;
 5/5=2,38=5/2;
 8/6=4,10=90,11=11/1;
 11/6=1,8=1,9=11,15=111,16=1/1,2,10;
 10/6=1/2;
 6/7=2,8=2,9=2,10=2,18=1,28=1/1;
 7/10=1,25=1/1,2,3,16;
 1/7=1,10=4,18=40,26=4/3(3);
 2/29=3/2;
 7/8=1,9=1,25=1,44=-1/16;
 99//99;
 2/29=3/2;
 3/5=7,6=1,11=2,25=1,30=1,71=2,74=-58,75=-5,82=7,140=1/1,2,3;
 4/5=5,16=3,69=1/1;
 5/5=2,38=5/2;
 8/6=4,10=90,11=11/1;
 11/6=1,8=1,9=11,15=111,16=1/1,2,10;
 10/6=1/2;
 7/10=1,25=1/1,2,3,16;
 1/7=1,10=4,18=40,26=4/3(-8);
 2/29=3/2;
 6/7=2,8=2,9=2,10=2,18=1,19=2,28=1/1;
 7/8=1,9=1,25=1,44=-1/16;
 99//99;
 ------------------------------------------
 CFC-114 - ClF2C-CClF2 HARMONIC FREQUENCIES
 ------------------------------------------
 Symbolic Z-matrix:
 Charge =  0 Multiplicity = 1
 C
 C                    1    r2
 Cl                   1    r3       2    a3
 F                    1    r4       2    a4       3    d4       0
 F                    1    r5       2    a5       3    d5       0
 F                    2    r6       1    a6       3    d6       0
 F                    2    r7       1    a7       3    d7       0
 Cl                   2    r8       1    a8       3    d8       0
       Variables:
  r2                    1.5394                   
  r3                    1.7848                   
  a3                  112.3                      
  r4                    1.3628                   
  a4                  110.94                     
  d4                  238.76                     
  r5                    1.3628                   
  a5                  110.94                     
  d5                  121.24                     
  r6                    1.3629                   
  a6                  110.9                      
  d6                   58.72                     
  r7                    1.3629                   
  a7                  110.9                      
  d7                  301.28                     
  r8                    1.7844                   
  a8                  112.26                     
  d8                  180.                       
 

 GradGradGradGradGradGradGradGradGradGradGradGradGradGradGradGradGradGrad
 Berny optimization.
 Initialization pass.
                       ----------------------------
                       !    Initial Parameters    !
                       ! (Angstroms and Degrees)  !
 ----------------------                            ----------------------
 !      Name          Value   Derivative information (Atomic Units)     !
 ------------------------------------------------------------------------
 !       r2          1.5394   calculate D2E/DX2 analytically            !
 !       r3          1.7848   calculate D2E/DX2 analytically            !
 !       a3        112.3      calculate D2E/DX2 analytically            !
 !       r4          1.3628   calculate D2E/DX2 analytically            !
 !       a4        110.94     calculate D2E/DX2 analytically            !
 !       d4        238.76     calculate D2E/DX2 analytically            !
 !       r5          1.3628   calculate D2E/DX2 analytically            !
 !       a5        110.94     calculate D2E/DX2 analytically            !
 !       d5        121.24     calculate D2E/DX2 analytically            !
 !       r6          1.3629   calculate D2E/DX2 analytically            !
 !       a6        110.9      calculate D2E/DX2 analytically            !
 !       d6         58.72     calculate D2E/DX2 analytically            !
 !       r7          1.3629   calculate D2E/DX2 analytically            !
 !       a7        110.9      calculate D2E/DX2 analytically            !
 !       d7        301.28     calculate D2E/DX2 analytically            !
 !       r8          1.7844   calculate D2E/DX2 analytically            !
 !       a8        112.26     calculate D2E/DX2 analytically            !
 !       d8        180.0      calculate D2E/DX2 analytically            !
 ------------------------------------------------------------------------
 Trust Radius=3.00D-01 FncErr=1.00D-07 GrdErr=1.00D-06 EigMax=2.50D+02 EigMin=1.00D-04
 Number of steps in this run=     28 maximum allowed number of steps=    100.
 GradGradGradGradGradGradGradGradGradGradGradGradGradGradGradGradGradGrad

 ---------------------------------------------------------------------------------------------------
                            Z-MATRIX (ANGSTROMS AND DEGREES)
   CD    Cent   Atom    N1       Length/X        N2       Alpha/Y        N3        Beta/Z          J
 ---------------------------------------------------------------------------------------------------
      1      1  C 
      2      2  C        1   1.539400(     1)
      3      3  Cl       1   1.784800(     2)      2  112.300(     8)
      4      4  F        1   1.362800(     3)      2  110.940(     9)      3  238.760(    14)      0
      5      5  F        1   1.362800(     4)      2  110.940(    10)      3  121.240(    15)      0
      6      6  F        2   1.362900(     5)      1  110.900(    11)      3   58.720(    16)      0
      7      7  F        2   1.362900(     6)      1  110.900(    12)      3  301.280(    17)      0
      8      8  Cl       2   1.784400(     7)      1  112.260(    13)      3  180.000(    18)      0
 ---------------------------------------------------------------------------------------------------
                         Z-Matrix orientation:                         
 ---------------------------------------------------------------------
 Center     Atomic      Atomic             Coordinates (Angstroms)
 Number     Number       Type             X           Y           Z
 ---------------------------------------------------------------------
      1          6           0        0.000000    0.000000    0.000000
      2          6           0        0.000000    0.000000    1.539400
      3         17           0        1.651314    0.000000   -0.677253
      4          9           0       -0.660102    1.088242   -0.487051
      5          9           0       -0.660102   -1.088242   -0.487051
      6          9           0        0.661086    1.088151    2.025598
      7          9           0        0.661086   -1.088151    2.025598
      8         17           0       -1.651417    0.000000    2.215349
 ---------------------------------------------------------------------
                    Distance matrix (angstroms):
                    1          2          3          4          5
     1  C    0.000000
     2  C    1.539400   0.000000
     3  Cl   1.784800   2.764126   0.000000
     4  F    1.362800   2.393013   2.561853   0.000000
     5  F    1.362800   2.393013   2.561853   2.176484   0.000000
     6  F    2.392521   1.362900   3.077342   2.838828   3.577098
     7  F    2.392521   1.362900   3.077342   3.577098   2.838828
     8  Cl   2.763141   1.784400   4.390351   3.077327   3.077327
                    6          7          8
     6  F    0.000000
     7  F    2.176302   0.000000
     8  Cl   2.562762   2.562762   0.000000
 Stoichiometry    C2Cl2F4
 Framework group  CS[SG(C2Cl2),X(F4)]
 Deg. of freedom    11
 Full point group                 CS      NOp   2
 Largest Abelian subgroup         CS      NOp   2
 Largest concise Abelian subgroup CS      NOp   2
                         Standard orientation:                         
 ---------------------------------------------------------------------
 Center     Atomic      Atomic             Coordinates (Angstroms)
 Number     Number       Type             X           Y           Z
 ---------------------------------------------------------------------
      1          6           0       -0.357832   -0.680948   -0.000000
      2          6           0        0.358603    0.681577    0.000000
      3         17           0       -2.134605   -0.511865   -0.000000
      4          9           0       -0.000249   -1.419248    1.088242
      5          9           0       -0.000249   -1.419248   -1.088242
      6          9           0       -0.000249    1.419580    1.088151
      7          9           0       -0.000249    1.419580   -1.088151
      8         17           0        2.134859    0.511292    0.000000
 ---------------------------------------------------------------------
 Rotational constants (GHZ):           2.1559438           1.1232939           1.0020581
 General basis read from cards:  (5D, 7F)
 There are   128 symmetry adapted cartesian basis functions of A'  symmetry.
 There are    80 symmetry adapted cartesian basis functions of A"  symmetry.
 There are   116 symmetry adapted basis functions of A'  symmetry.
 There are    76 symmetry adapted basis functions of A"  symmetry.
   192 basis functions,   392 primitive gaussians,   208 cartesian basis functions
    41 alpha electrons       41 beta electrons
       nuclear repulsion energy       603.5859974614 Hartrees.
 NAtoms=    8 NActive=    8 NUniq=    6 SFac= 1.78D+00 NAtFMM=   60 NAOKFM=F Big=F
 Integral buffers will be    131072 words long.
 Raffenetti 2 integral format.
 Two-electron integral symmetry is turned on.
 Nuclear repulsion after empirical dispersion term =      603.5833232518 Hartrees.
 One-electron integrals computed using PRISM.
 NBasis=   192 RedAO= T EigKep=  2.53D-04  NBF=   116    76
 NBsUse=   192 1.00D-06 EigRej= -1.00D+00 NBFU=   116    76
 ExpMin= 3.35D-02 ExpMax= 6.35D+04 ExpMxC= 2.17D+03 IAcc=3 IRadAn=         5 AccDes= 0.00D+00
 Harris functional with IExCor= 4639 and IRadAn=       5 diagonalized for initial guess.
 HarFok:  IExCor= 4639 AccDes= 0.00D+00 IRadAn=         5 IDoV= 1 UseB2=F ITyADJ=14
 ICtDFT=  3500011 ScaDFX=  1.000000  1.000000  1.000000  1.000000
 FoFCou: FMM=F IPFlag=           0 FMFlag=      100000 FMFlg1=           0
         NFxFlg=           0 DoJE=T BraDBF=F KetDBF=T FulRan=T
         wScrn=  0.000000 ICntrl=       500 IOpCl=  0 I1Cent=   200000004 NGrid=           0
         NMat0=    1 NMatS0=      1 NMatT0=    0 NMatD0=    1 NMtDS0=    0 NMtDT0=    0
 Petite list used in FoFCou.
 Initial guess orbital symmetries:
       Occupied  (A') (A') (A') (A') (A") (A") (A') (A') (A') (A')
                 (A') (A') (A') (A") (A') (A") (A') (A') (A") (A")
                 (A') (A') (A') (A') (A') (A") (A') (A") (A') (A')
                 (A") (A") (A') (A") (A') (A") (A') (A') (A") (A")
                 (A')
       Virtual   (A') (A') (A') (A") (A') (A") (A') (A') (A') (A")
                 (A') (A") (A') (A') (A') (A") (A") (A') (A') (A')
                 (A") (A") (A') (A') (A") (A') (A") (A') (A") (A')
                 (A") (A') (A') (A") (A') (A') (A') (A") (A') (A")
                 (A') (A') (A") (A') (A') (A') (A") (A') (A') (A")
                 (A') (A') (A') (A") (A") (A') (A') (A") (A") (A')
                 (A") (A') (A') (A") (A') (A") (A') (A") (A") (A')
                 (A') (A") (A") (A') (A") (A') (A') (A') (A") (A')
                 (A") (A") (A") (A') (A') (A') (A') (A") (A') (A")
                 (A') (A') (A') (A") (A") (A") (A') (A") (A') (A')
                 (A') (A') (A') (A") (A') (A") (A') (A") (A') (A')
                 (A") (A') (A") (A') (A') (A') (A") (A") (A') (A")
                 (A') (A') (A") (A") (A') (A') (A') (A") (A") (A")
                 (A") (A") (A") (A') (A") (A') (A') (A") (A') (A')
                 (A') (A") (A') (A') (A") (A') (A') (A') (A') (A")
                 (A")
 The electronic state of the initial guess is 1-A'.
 Requested convergence on RMS density matrix=1.00D-08 within 128 cycles.
 Requested convergence on MAX density matrix=1.00D-06.
 Requested convergence on             energy=1.00D-06.
 No special actions if energy rises.
 SCF Done:  E(RwB97XD) =  -1395.76619309     A.U. after   12 cycles
            NFock= 12  Conv=0.62D-08     -V/T= 2.0017
 DoSCS=F DFT=T ScalE2(SS,OS)=  1.000000  1.000000
 Range of M.O.s used for correlation:     1   192
 NBasis=   192 NAE=    41 NBE=    41 NFC=     0 NFV=     0
 NROrb=    192 NOA=    41 NOB=    41 NVA=   151 NVB=   151

 **** Warning!!: The largest alpha MO coefficient is  0.18085358D+02

 Symmetrizing basis deriv contribution to polar:
 IMax=3 JMax=2 DiffMx= 0.00D+00
 G2DrvN: will do     9 centers at a time, making    1 passes.
 Calling FoFCou, ICntrl=  3107 FMM=F I1Cent=   0 AccDes= 0.00D+00.
 End of G2Drv F.D. properties file   721 does not exist.
 End of G2Drv F.D. properties file   722 does not exist.
 End of G2Drv F.D. properties file   788 does not exist.
          IDoAtm=11111111
          Differentiating once with respect to electric field.
                with respect to dipole field.
          Differentiating once with respect to nuclear coordinates.
 CalDSu exits because no D1Ps are significant.
          There are    21 degrees of freedom in the 1st order CPHF.  IDoFFX=4 NUNeed=    21.
     21 vectors produced by pass  0 Test12= 2.95D-14 4.76D-09 XBig12= 3.02D+01 2.74D+00.
 AX will form    21 AO Fock derivatives at one time.
     21 vectors produced by pass  1 Test12= 2.95D-14 4.76D-09 XBig12= 3.41D+00 3.68D-01.
     21 vectors produced by pass  2 Test12= 2.95D-14 4.76D-09 XBig12= 4.71D-01 1.32D-01.
     21 vectors produced by pass  3 Test12= 2.95D-14 4.76D-09 XBig12= 2.81D-02 3.74D-02.
     21 vectors produced by pass  4 Test12= 2.95D-14 4.76D-09 XBig12= 3.86D-04 5.13D-03.
     21 vectors produced by pass  5 Test12= 2.95D-14 4.76D-09 XBig12= 2.35D-06 3.49D-04.
     21 vectors produced by pass  6 Test12= 2.95D-14 4.76D-09 XBig12= 1.32D-08 2.14D-05.
     14 vectors produced by pass  7 Test12= 2.95D-14 4.76D-09 XBig12= 9.54D-11 2.23D-06.
      4 vectors produced by pass  8 Test12= 2.95D-14 4.76D-09 XBig12= 6.85D-13 1.14D-07.
      3 vectors produced by pass  9 Test12= 2.95D-14 4.76D-09 XBig12= 3.96D-15 1.21D-08.
 InvSVY:  IOpt=1 It=  1 EMax= 5.33D-15
 Solved reduced A of dimension   168 with    21 vectors.
 Isotropic polarizability for W=    0.000000       59.06 Bohr**3.
 End of Minotr F.D. properties file   721 does not exist.
 End of Minotr F.D. properties file   722 does not exist.
 End of Minotr F.D. properties file   788 does not exist.

 **********************************************************************

            Population analysis using the SCF Density.

 **********************************************************************

 Orbital symmetries:
       Occupied  (A') (A') (A') (A") (A') (A") (A') (A') (A') (A')
                 (A') (A') (A') (A") (A') (A") (A') (A') (A") (A")
                 (A') (A') (A') (A') (A') (A") (A") (A') (A') (A')
                 (A") (A") (A') (A") (A") (A') (A') (A') (A") (A")
                 (A')
       Virtual   (A') (A') (A') (A") (A') (A') (A") (A') (A") (A')
                 (A") (A') (A') (A') (A") (A') (A') (A') (A") (A")
                 (A') (A') (A") (A') (A") (A') (A') (A") (A') (A')
                 (A") (A') (A") (A') (A") (A') (A') (A") (A') (A")
                 (A') (A') (A') (A') (A") (A") (A') (A') (A") (A')
                 (A') (A') (A") (A') (A") (A') (A") (A') (A") (A')
                 (A') (A') (A") (A") (A") (A') (A') (A') (A") (A')
                 (A") (A') (A") (A') (A') (A") (A") (A') (A') (A")
                 (A") (A') (A") (A") (A') (A') (A') (A") (A') (A")
                 (A') (A') (A') (A") (A") (A") (A') (A") (A') (A')
                 (A') (A') (A') (A") (A') (A') (A") (A") (A') (A')
                 (A") (A') (A') (A") (A') (A') (A") (A") (A') (A")
                 (A') (A') (A") (A") (A') (A') (A') (A") (A") (A")
                 (A") (A") (A") (A') (A") (A') (A') (A") (A') (A")
                 (A') (A') (A') (A') (A") (A') (A') (A') (A') (A")
                 (A")
 The electronic state is 1-A'.
 Alpha  occ. eigenvalues -- -101.72674-101.72653 -24.87790 -24.87788 -24.87787
 Alpha  occ. eigenvalues --  -24.87786 -10.57495 -10.57476  -9.62647  -9.62625
 Alpha  occ. eigenvalues --   -7.37422  -7.37400  -7.36289  -7.36284  -7.36268
 Alpha  occ. eigenvalues --   -7.36262  -1.43757  -1.42231  -1.37057  -1.36192
 Alpha  occ. eigenvalues --   -1.01894  -1.00431  -0.88418  -0.79144  -0.73096
 Alpha  occ. eigenvalues --   -0.72266  -0.68726  -0.68422  -0.65321  -0.60139
 Alpha  occ. eigenvalues --   -0.57837  -0.57633  -0.56184  -0.55454  -0.53988
 Alpha  occ. eigenvalues --   -0.53586  -0.48699  -0.45805  -0.44807  -0.44217
 Alpha  occ. eigenvalues --   -0.43757
 Alpha virt. eigenvalues --    0.01453   0.05192   0.06730   0.07007   0.07247
 Alpha virt. eigenvalues --    0.07565   0.09811   0.09967   0.10121   0.11306
 Alpha virt. eigenvalues --    0.12116   0.12507   0.12981   0.14572   0.15448
 Alpha virt. eigenvalues --    0.16318   0.18878   0.20264   0.21440   0.21575
 Alpha virt. eigenvalues --    0.21657   0.23644   0.23803   0.24188   0.24251
 Alpha virt. eigenvalues --    0.24934   0.26203   0.27752   0.28280   0.28884
 Alpha virt. eigenvalues --    0.29157   0.29506   0.30101   0.31468   0.32212
 Alpha virt. eigenvalues --    0.33003   0.34015   0.36493   0.36598   0.37402
 Alpha virt. eigenvalues --    0.37641   0.38215   0.41406   0.41713   0.42317
 Alpha virt. eigenvalues --    0.42945   0.43095   0.45400   0.46341   0.47184
 Alpha virt. eigenvalues --    0.52970   0.53763   0.54440   0.54945   0.56077
 Alpha virt. eigenvalues --    0.58717   0.59420   0.59822   0.60608   0.69198
 Alpha virt. eigenvalues --    0.69535   0.70619   0.70885   0.74612   0.75823
 Alpha virt. eigenvalues --    0.76011   0.79902   0.81753   0.82120   0.82236
 Alpha virt. eigenvalues --    0.83207   0.84442   0.84587   0.84662   0.85484
 Alpha virt. eigenvalues --    0.85715   0.86477   0.86668   0.92221   0.94189
 Alpha virt. eigenvalues --    0.95257   0.96141   0.96651   0.97847   0.99516
 Alpha virt. eigenvalues --    1.00396   1.01713   1.04358   1.04711   1.07464
 Alpha virt. eigenvalues --    1.07480   1.08134   1.12270   1.14934   1.15430
 Alpha virt. eigenvalues --    1.19147   1.20441   1.24550   1.24795   1.29603
 Alpha virt. eigenvalues --    1.30676   1.45483   1.54250   1.55089   1.55284
 Alpha virt. eigenvalues --    1.55656   1.56380   1.73669   1.78013   1.78648
 Alpha virt. eigenvalues --    1.80794   1.86631   1.87676   1.89678   1.91877
 Alpha virt. eigenvalues --    1.98473   1.98860   2.01439   2.02279   2.04648
 Alpha virt. eigenvalues --    2.09864   2.10659   2.13204   2.17731   2.30075
 Alpha virt. eigenvalues --    2.30849   2.52827   2.76880   2.77651   2.78638
 Alpha virt. eigenvalues --    2.83649   2.84251   2.85954   2.88494   2.89399
 Alpha virt. eigenvalues --    2.90970   2.91347   2.95183   2.96036   2.98229
 Alpha virt. eigenvalues --    2.98312   2.98478   3.03626   3.06585   3.18840
 Alpha virt. eigenvalues --    3.22823   3.23951   3.55042   3.60610   3.62361
 Alpha virt. eigenvalues --    3.73208
          Condensed to atoms (all electrons):
               1          2          3          4          5          6
     1  C    5.090557   0.009989   0.277956  -0.402494  -0.402494  -0.019666
     2  C    0.009989   5.089592  -0.269273  -0.019746  -0.019746  -0.401818
     3  Cl   0.277956  -0.269273  17.763582  -0.155403  -0.155403  -0.008954
     4  F   -0.402494  -0.019746  -0.155403  10.359630  -0.149276  -0.012595
     5  F   -0.402494  -0.019746  -0.155403  -0.149276  10.359630   0.008155
     6  F   -0.019666  -0.401818  -0.008954  -0.012595   0.008155  10.358413
     7  F   -0.019666  -0.401818  -0.008954   0.008155  -0.012595  -0.149184
     8  Cl  -0.269680   0.277448   0.053711  -0.009057  -0.009057  -0.155248
               7          8
     1  C   -0.019666  -0.269680
     2  C   -0.401818   0.277448
     3  Cl  -0.008954   0.053711
     4  F    0.008155  -0.009057
     5  F   -0.012595  -0.009057
     6  F   -0.149184  -0.155248
     7  F   10.358413  -0.155248
     8  Cl  -0.155248  17.764104
 Mulliken charges:
               1
     1  C    1.735499
     2  C    1.735372
     3  Cl  -0.497262
     4  F   -0.619213
     5  F   -0.619213
     6  F   -0.619104
     7  F   -0.619104
     8  Cl  -0.496973
 Sum of Mulliken charges =  -0.00000
 Mulliken charges with hydrogens summed into heavy atoms:
               1
     1  C    1.735499
     2  C    1.735372
     3  Cl  -0.497262
     4  F   -0.619213
     5  F   -0.619213
     6  F   -0.619104
     7  F   -0.619104
     8  Cl  -0.496973
 APT charges:
               1
     1  C    1.275634
     2  C    1.275695
     3  Cl  -0.275417
     4  F   -0.500185
     5  F   -0.500185
     6  F   -0.500153
     7  F   -0.500153
     8  Cl  -0.275235
 Sum of APT charges =  -0.00000
 APT charges with hydrogens summed into heavy atoms:
               1
     1  C    1.275634
     2  C    1.275695
     3  Cl  -0.275417
     4  F   -0.500185
     5  F   -0.500185
     6  F   -0.500153
     7  F   -0.500153
     8  Cl  -0.275235
 Electronic spatial extent (au):  <R**2>=           1147.6181
 Charge=             -0.0000 electrons
 Dipole moment (field-independent basis, Debye):
    X=              0.0070    Y=              0.0011    Z=             -0.0000  Tot=              0.0071
 Quadrupole moment (field-independent basis, Debye-Ang):
   XX=            -52.7082   YY=            -58.4435   ZZ=            -58.1940
   XY=              0.4159   XZ=             -0.0000   YZ=              0.0000
 Traceless Quadrupole moment (field-independent basis, Debye-Ang):
   XX=              3.7404   YY=             -1.9949   ZZ=             -1.7455
   XY=              0.4159   XZ=             -0.0000   YZ=              0.0000
 Octapole moment (field-independent basis, Debye-Ang**2):
  XXX=              0.0323  YYY=              0.0030  ZZZ=             -0.0000  XYY=              0.0022
  XXY=             -0.0022  XXZ=              0.0000  XZZ=              0.0008  YZZ=              0.0003
  YYZ=              0.0000  XYZ=             -0.0000
 Hexadecapole moment (field-independent basis, Debye-Ang**3):
 XXXX=           -657.3280 YYYY=           -362.8451 ZZZZ=           -191.1585 XXXY=            -83.2575
 XXXZ=             -0.0000 YYYX=            -91.2029 YYYZ=             -0.0000 ZZZX=              0.0000
 ZZZY=              0.0000 XXYY=           -184.8853 XXZZ=           -157.9809 YYZZ=            -93.7179
 XXYZ=             -0.0000 YYXZ=              0.0000 ZZXY=            -31.4068
 N-N= 6.035833232518D+02 E-N=-4.525071602927D+03  KE= 1.393374626912D+03
 Symmetry A'   KE= 1.097794932736D+03
 Symmetry A"   KE= 2.955796941760D+02
  Exact polarizability:      74.463       1.815      52.011      -0.000      -0.000      50.692
 Approx polarizability:      78.664      -2.690      57.788       0.000       0.000      60.709
 Calling FoFJK, ICntrl=    100127 FMM=F ISym2X=1 I1Cent= 0 IOpClX= 0 NMat=1 NMatS=1 NMatT=0.
 ***** Axes restored to original set *****
 -------------------------------------------------------------------
 Center     Atomic                   Forces (Hartrees/Bohr)
 Number     Number              X              Y              Z
 -------------------------------------------------------------------
      1        6          -0.011715319   -0.000000000   -0.036640309
      2        6           0.012086534    0.000000000    0.036243069
      3       17          -0.007818924    0.000000000    0.007322414
      4        9           0.011515608   -0.014657891    0.015676430
      5        9           0.011515608    0.014657891    0.015676430
      6        9          -0.011727475   -0.014672104   -0.015556758
      7        9          -0.011727475    0.014672104   -0.015556758
      8       17           0.007871442   -0.000000000   -0.007164519
 -------------------------------------------------------------------
 Cartesian Forces:  Max     0.036640309 RMS     0.015198012
 -----------------------------------------------------------------------------------------------
                       Internal Coordinate Forces (Hartree/Bohr or radian)
  Cent   Atom   N1       Length/X         N2         Alpha/Y        N3         Beta/Z          J
 -----------------------------------------------------------------------------------------------
      1  C 
      2  C        1  -0.002035(     1)
      3  Cl       1  -0.010013(     2)      2  -0.012843(     8)
      4  F        1  -0.022885(     3)      2  -0.020674(     9)      3   0.005397(    14)     0
      5  F        1  -0.022885(     4)      2  -0.020674(    10)      3  -0.005397(    15)     0
      6  F        2  -0.022953(     5)      1  -0.020315(    11)      3   0.005786(    16)     0
      7  F        2  -0.022953(     6)      1  -0.020315(    12)      3  -0.005786(    17)     0
      8  Cl       2  -0.009999(     7)      1  -0.012304(    13)      3   0.000000(    18)     0
 -----------------------------------------------------------------------------------------------
 Internal  Forces:  Max     0.022952531 RMS     0.015682985

 GradGradGradGradGradGradGradGradGradGradGradGradGradGradGradGradGradGrad
 Berny optimization.
 Search for a local minimum.
 Step number   1 out of a maximum of   28
 All quantities printed in internal units (Hartrees-Bohrs-Radians)
 Second derivative matrix not updated -- analytic derivatives used.
 The second derivative matrix:
                          r2        r3        a3        r4        a4
           r2           0.27739
           r3           0.01189   0.20829
           a3           0.03392  -0.00912   0.40178
           r4           0.01583   0.03853  -0.03692   0.34166
           a4           0.03077  -0.03615   0.13149  -0.00739   0.42025
           d4           0.00642  -0.04817   0.08807   0.01261  -0.00665
           r5           0.01583   0.03853  -0.03692   0.05154  -0.03806
           a5           0.03077  -0.03615   0.13149  -0.03806   0.15009
           d5          -0.00642   0.04817  -0.08807  -0.06369   0.10521
           r6           0.01587   0.00296   0.00012   0.00416   0.00019
           a6           0.03085   0.00190   0.01285   0.00019   0.00045
           d6           0.00643  -0.00308   0.00948   0.00655  -0.00031
           r7           0.01587   0.00296   0.00012   0.00284   0.01730
           a7           0.03085   0.00190   0.01285   0.01730   0.03888
           d7          -0.00643   0.00308  -0.00948  -0.00080   0.00099
           r8           0.01193   0.00221   0.00916   0.00297   0.00189
           a8           0.03395   0.00916   0.02168   0.00013   0.01282
           d8          -0.00000  -0.00000   0.00000  -0.00482   0.00834
                          d4        r5        a5        d5        r6
           d4           0.41678
           r5           0.06369   0.34166
           a5          -0.10521  -0.00739   0.42025
           d5          -0.23330  -0.01261   0.00665   0.41678
           r6           0.00655   0.00284   0.01730  -0.00080   0.34147
           a6          -0.00030   0.01730   0.03888   0.00099  -0.00709
           d6          -0.00009   0.00080  -0.00099   0.00627   0.01288
           r7           0.00080   0.00416   0.00019  -0.00655   0.05156
           a7          -0.00099   0.00019   0.00045   0.00030  -0.03802
           d7           0.00627  -0.00655   0.00031  -0.00009  -0.06382
           r8          -0.00309   0.00297   0.00189   0.00309   0.03846
           a8           0.00947   0.00013   0.01282  -0.00947  -0.03678
           d8           0.00583   0.00482  -0.00834   0.00583   0.05192
                          a6        d6        r7        a7        d7
           a6           0.42000
           d6          -0.00681   0.41687
           r7          -0.03802   0.06382   0.34147
           a7           0.15000  -0.10521  -0.00709   0.42000
           d7           0.10521  -0.23378  -0.01288   0.00681   0.41687
           r8          -0.03599  -0.04801   0.03846  -0.03599   0.04801
           a8           0.13113   0.08782  -0.03678   0.13113  -0.08782
           d8          -0.08917  -0.17138  -0.05192   0.08917  -0.17138
                          r8        a8        d8
           r8           0.20855
           a8          -0.00868   0.40162
           d8          -0.00000  -0.00000   0.35669
 ITU=  0
     Eigenvalues ---    0.01149   0.09843   0.12924   0.15362   0.15421
     Eigenvalues ---    0.24098   0.24263   0.27584   0.28970   0.31705
     Eigenvalues ---    0.35316   0.36698   0.42036   0.61940   0.65185
     Eigenvalues ---    0.72414   0.74486   0.77445
 RFO step:  Lambda=-9.54878250D-03 EMin= 1.14921936D-02
 Linear search not attempted -- first point.
 Variable       Old X    -DE/DX   Delta X   Delta X   Delta X     New X
                                 (Linear)    (Quad)   (Total)
    r2        2.90904  -0.00203   0.00000   0.02690   0.02690   2.93595
    r3        3.37278  -0.01001   0.00000  -0.02741  -0.02741   3.34537
    a3        1.96000  -0.01284   0.00000  -0.02780  -0.02780   1.93220
    r4        2.57532  -0.02289   0.00000  -0.06129  -0.06129   2.51402
    a4        1.93627  -0.02067   0.00000  -0.03028  -0.03028   1.90599
    d4        4.16715   0.00540   0.00000   0.01260   0.01260   4.17975
    r5        2.57532  -0.02289   0.00000  -0.06129  -0.06129   2.51402
    a5        1.93627  -0.02067   0.00000  -0.03028  -0.03028   1.90599
    d5        2.11604  -0.00540   0.00000  -0.01260  -0.01260   2.10343
    r6        2.57551  -0.02295   0.00000  -0.06150  -0.06150   2.51401
    a6        1.93557  -0.02031   0.00000  -0.02958  -0.02958   1.90599
    d6        1.02486   0.00579   0.00000   0.01331   0.01331   1.03817
    r7        2.57551  -0.02295   0.00000  -0.06150  -0.06150   2.51401
    a7        1.93557  -0.02031   0.00000  -0.02958  -0.02958   1.90599
    d7        5.25833  -0.00579   0.00000  -0.01331  -0.01331   5.24501
    r8        3.37203  -0.01000   0.00000  -0.02662  -0.02662   3.34541
    a8        1.95931  -0.01230   0.00000  -0.02711  -0.02711   1.93220
    d8        3.14159   0.00000   0.00000  -0.00000  -0.00000   3.14159
         Item               Value     Threshold  Converged?
 Maximum Force            0.022953     0.000002     NO 
 RMS     Force            0.015683     0.000001     NO 
 Maximum Displacement     0.061497     0.000006     NO 
 RMS     Displacement     0.035765     0.000004     NO 
 Predicted change in Energy=-4.884321D-03
 GradGradGradGradGradGradGradGradGradGradGradGradGradGradGradGradGradGrad

 ---------------------------------------------------------------------------------------------------
                            Z-MATRIX (ANGSTROMS AND DEGREES)
   CD    Cent   Atom    N1       Length/X        N2       Alpha/Y        N3        Beta/Z          J
 ---------------------------------------------------------------------------------------------------
      1      1  C 
      2      2  C        1   1.553636(     1)
      3      3  Cl       1   1.770294(     2)      2  110.707(     8)
      4      4  F        1   1.330365(     3)      2  109.205(     9)      3  239.482(    14)      0
      5      5  F        1   1.330365(     4)      2  109.205(    10)      3  120.518(    15)      0
      6      6  F        2   1.330357(     5)      1  109.205(    11)      3   59.483(    16)      0
      7      7  F        2   1.330357(     6)      1  109.205(    12)      3  300.517(    17)      0
      8      8  Cl       2   1.770315(     7)      1  110.707(    13)      3  180.000(    18)      0
 ---------------------------------------------------------------------------------------------------
                         Z-Matrix orientation:                         
 ---------------------------------------------------------------------
 Center     Atomic      Atomic             Coordinates (Angstroms)
 Number     Number       Type             X           Y           Z
 ---------------------------------------------------------------------
      1          6           0        0.000000    0.000000    0.000000
      2          6           0        0.000000    0.000000    1.553636
      3         17           0        1.655934    0.000000   -0.625959
      4          9           0       -0.637970    1.082288   -0.437626
      5          9           0       -0.637970   -1.082288   -0.437626
      6          9           0        0.637955    1.082289    1.991260
      7          9           0        0.637955   -1.082289    1.991260
      8         17           0       -1.655955    0.000000    2.179599
 ---------------------------------------------------------------------
                    Distance matrix (angstroms):
                    1          2          3          4          5
     1  C    0.000000
     2  C    1.553636   0.000000
     3  Cl   1.770294   2.737289   0.000000
     4  F    1.330365   2.354459   2.543386   0.000000
     5  F    1.330365   2.354459   2.543386   2.164577   0.000000
     6  F    2.354453   1.330357   3.009562   2.743623   3.494691
     7  F    2.354453   1.330357   3.009562   3.494691   2.743623
     8  Cl   2.737305   1.770315   4.340480   3.009569   3.009569
                    6          7          8
     6  F    0.000000
     7  F    2.164578   0.000000
     8  Cl   2.543392   2.543392   0.000000
 Stoichiometry    C2Cl2F4
 Framework group  C1[X(C2Cl2F4)]
 Deg. of freedom    18
 Full point group                 C1      NOp   1
 Omega: Change in point group or standard orientation.

 Old FWG=CS   [SG(C2Cl2),X(F4)]
 New FWG=C01  [X(C2Cl2F4)]
 Largest Abelian subgroup         C1      NOp   1
 Largest concise Abelian subgroup C1      NOp   1
                         Standard orientation:                         
 ---------------------------------------------------------------------
 Center     Atomic      Atomic             Coordinates (Angstroms)
 Number     Number       Type             X           Y           Z
 ---------------------------------------------------------------------
      1          6           0       -0.598239   -0.495537    0.000000
      2          6           0        0.598228    0.495548    0.000000
      3         17           0       -2.136637    0.380404    0.000000
      4          9           0       -0.528289   -1.266010    1.082288
      5          9           0       -0.528289   -1.266010   -1.082289
      6          9           0        0.528286    1.266008    1.082289
      7          9           0        0.528286    1.266008   -1.082289
      8         17           0        2.136644   -0.380406    0.000000
 ---------------------------------------------------------------------
 Rotational constants (GHZ):           2.2280633           1.1535681           1.0379630
 Basis read from rwf:  (5D, 7F)
 There are   208 symmetry adapted cartesian basis functions of A   symmetry.
 There are   192 symmetry adapted basis functions of A   symmetry.
   192 basis functions,   392 primitive gaussians,   208 cartesian basis functions
    41 alpha electrons       41 beta electrons
       nuclear repulsion energy       612.7005317207 Hartrees.
 NAtoms=    8 NActive=    8 NUniq=    8 SFac= 1.00D+00 NAtFMM=   60 NAOKFM=F Big=F
 Integral buffers will be    131072 words long.
 Raffenetti 2 integral format.
 Two-electron integral symmetry is turned on.
 Nuclear repulsion after empirical dispersion term =      612.6979654331 Hartrees.
 One-electron integrals computed using PRISM.
 NBasis=   192 RedAO= T EigKep=  2.45D-04  NBF=   192
 NBsUse=   192 1.00D-06 EigRej= -1.00D+00 NBFU=   192
 Initial guess from the checkpoint file:  "checkpoint.chk"
 B after Tr=     0.000000   -0.000000    0.000000
         Rot=    0.979446    0.000000    0.000000    0.201704 Ang=  23.27 deg.
 ExpMin= 3.35D-02 ExpMax= 6.35D+04 ExpMxC= 2.17D+03 IAcc=3 IRadAn=         5 AccDes= 0.00D+00
 Harris functional with IExCor= 4639 and IRadAn=       5 diagonalized for initial guess.
 HarFok:  IExCor= 4639 AccDes= 0.00D+00 IRadAn=         5 IDoV= 1 UseB2=F ITyADJ=14
 ICtDFT=  3500011 ScaDFX=  1.000000  1.000000  1.000000  1.000000
 FoFCou: FMM=F IPFlag=           0 FMFlag=      100000 FMFlg1=           0
         NFxFlg=           0 DoJE=T BraDBF=F KetDBF=T FulRan=T
         wScrn=  0.000000 ICntrl=       500 IOpCl=  0 I1Cent=   200000004 NGrid=           0
         NMat0=    1 NMatS0=      1 NMatT0=    0 NMatD0=    1 NMtDS0=    0 NMtDT0=    0
 Petite list used in FoFCou.
 Requested convergence on RMS density matrix=1.00D-08 within 128 cycles.
 Requested convergence on MAX density matrix=1.00D-06.
 Requested convergence on             energy=1.00D-06.
 No special actions if energy rises.
 SCF Done:  E(RwB97XD) =  -1395.77079728     A.U. after   11 cycles
            NFock= 11  Conv=0.39D-08     -V/T= 2.0015
 DoSCS=F DFT=T ScalE2(SS,OS)=  1.000000  1.000000
 Range of M.O.s used for correlation:     1   192
 NBasis=   192 NAE=    41 NBE=    41 NFC=     0 NFV=     0
 NROrb=    192 NOA=    41 NOB=    41 NVA=   151 NVB=   151

 **** Warning!!: The largest alpha MO coefficient is  0.17735903D+02

 Symmetrizing basis deriv contribution to polar:
 IMax=3 JMax=2 DiffMx= 0.00D+00
 G2DrvN: will do     9 centers at a time, making    1 passes.
 Calling FoFCou, ICntrl=  3107 FMM=F I1Cent=   0 AccDes= 0.00D+00.
 End of G2Drv F.D. properties file   721 does not exist.
 End of G2Drv F.D. properties file   722 does not exist.
 End of G2Drv F.D. properties file   788 does not exist.
          IDoAtm=11111111
          Differentiating once with respect to electric field.
                with respect to dipole field.
          Differentiating once with respect to nuclear coordinates.
 CalDSu exits because no D1Ps are significant.
          There are    27 degrees of freedom in the 1st order CPHF.  IDoFFX=6 NUNeed=     3.
     24 vectors produced by pass  0 Test12= 2.29D-14 3.70D-09 XBig12= 2.64D+01 2.26D+00.
 AX will form    24 AO Fock derivatives at one time.
     24 vectors produced by pass  1 Test12= 2.29D-14 3.70D-09 XBig12= 3.21D+00 3.33D-01.
     24 vectors produced by pass  2 Test12= 2.29D-14 3.70D-09 XBig12= 3.18D-01 9.01D-02.
     24 vectors produced by pass  3 Test12= 2.29D-14 3.70D-09 XBig12= 9.77D-03 2.23D-02.
     24 vectors produced by pass  4 Test12= 2.29D-14 3.70D-09 XBig12= 9.68D-05 1.98D-03.
     24 vectors produced by pass  5 Test12= 2.29D-14 3.70D-09 XBig12= 8.70D-07 1.67D-04.
     24 vectors produced by pass  6 Test12= 2.29D-14 3.70D-09 XBig12= 1.02D-08 1.56D-05.
     13 vectors produced by pass  7 Test12= 2.29D-14 3.70D-09 XBig12= 6.78D-11 1.39D-06.
      4 vectors produced by pass  8 Test12= 2.29D-14 3.70D-09 XBig12= 5.33D-13 1.59D-07.
      2 vectors produced by pass  9 Test12= 2.29D-14 3.70D-09 XBig12= 3.38D-15 1.49D-08.
 InvSVY:  IOpt=1 It=  1 EMax= 4.44D-15
 Solved reduced A of dimension   187 with    27 vectors.
 Isotropic polarizability for W=    0.000000       57.90 Bohr**3.
 End of Minotr F.D. properties file   721 does not exist.
 End of Minotr F.D. properties file   722 does not exist.
 End of Minotr F.D. properties file   788 does not exist.
 Calling FoFJK, ICntrl=    100127 FMM=F ISym2X=0 I1Cent= 0 IOpClX= 0 NMat=1 NMatS=1 NMatT=0.
 ***** Axes restored to original set *****
 -------------------------------------------------------------------
 Center     Atomic                   Forces (Hartrees/Bohr)
 Number     Number              X              Y              Z
 -------------------------------------------------------------------
      1        6           0.001559050   -0.000000004    0.000804768
      2        6          -0.001572217   -0.000000004   -0.000806307
      3       17           0.000217863   -0.000000000   -0.000079205
      4        9          -0.001091560    0.001835007   -0.001004086
      5        9          -0.001091558   -0.001835003   -0.001004084
      6        9           0.001095052    0.001837590    0.001006297
      7        9           0.001095050   -0.001837586    0.001006295
      8       17          -0.000211679   -0.000000000    0.000076323
 -------------------------------------------------------------------
 Cartesian Forces:  Max     0.001837590 RMS     0.001091931
 -----------------------------------------------------------------------------------------------
                       Internal Coordinate Forces (Hartree/Bohr or radian)
  Cent   Atom   N1       Length/X         N2         Alpha/Y        N3         Beta/Z          J
 -----------------------------------------------------------------------------------------------
      1  C 
      2  C        1   0.001283(     1)
      3  Cl       1   0.000232(     2)      2  -0.000010(     8)
      4  F        1   0.002347(     3)      2   0.000618(     9)      3  -0.000020(    14)     0
      5  F        1   0.002347(     4)      2   0.000618(    10)      3   0.000020(    15)     0
      6  F        2   0.002351(     5)      1   0.000620(    11)      3  -0.000024(    16)     0
      7  F        2   0.002351(     6)      1   0.000620(    12)      3   0.000024(    17)     0
      8  Cl       2   0.000225(     7)      1  -0.000012(    13)      3   0.000000(    18)     0
 -----------------------------------------------------------------------------------------------
 Internal  Forces:  Max     0.002351080 RMS     0.001186793

 GradGradGradGradGradGradGradGradGradGradGradGradGradGradGradGradGradGrad
 Berny optimization.
 Search for a local minimum.
 Step number   2 out of a maximum of   28
 All quantities printed in internal units (Hartrees-Bohrs-Radians)
 Second derivative matrix not updated -- analytic derivatives used.
 DE= -4.60D-03 DEPred=-4.88D-03 R= 9.43D-01
 TightC=F SS=  1.41D+00  RLast= 1.52D-01 DXNew= 5.0454D-01 4.5522D-01
 Trust test= 9.43D-01 RLast= 1.52D-01 DXMaxT set to 4.55D-01
 The second derivative matrix:
                          r2        r3        a3        r4        a4
           r2           0.27146
           r3           0.01362   0.22699
           a3           0.03920  -0.00121   0.41710
           r4           0.01889   0.04073  -0.03597   0.42418
           a4           0.03874  -0.03697   0.12985   0.00779   0.44585
           d4           0.00751  -0.05078   0.08875   0.00956  -0.00265
           r5           0.01889   0.04073  -0.03597   0.05385  -0.03506
           a5           0.03874  -0.03697   0.12985  -0.03506   0.14618
           d5          -0.00751   0.05078  -0.08875  -0.06297   0.10429
           r6           0.01889   0.00327  -0.00006   0.00471  -0.00038
           a6           0.03874   0.00253   0.01600  -0.00038   0.00166
           d6           0.00751  -0.00327   0.01217   0.00757  -0.00044
           r7           0.01889   0.00327  -0.00006   0.00445   0.02053
           a7           0.03874   0.00253   0.01600   0.02053   0.04482
           d7          -0.00751   0.00327  -0.01217  -0.00069   0.00128
           r8           0.01362   0.00253   0.00988   0.00327   0.00253
           a8           0.03920   0.00988   0.02183  -0.00006   0.01600
           d8          -0.00000  -0.00000   0.00000  -0.00561   0.01068
                          d4        r5        a5        d5        r6
           d4           0.43046
           r5           0.06297   0.42418
           a5          -0.10429   0.00779   0.44585
           d5          -0.23487  -0.00956   0.00265   0.43046
           r6           0.00757   0.00445   0.02053  -0.00069   0.42420
           a6          -0.00044   0.02053   0.04482   0.00127   0.00779
           d6           0.00016   0.00069  -0.00128   0.00658   0.00956
           r7           0.00069   0.00471  -0.00038  -0.00757   0.05385
           a7          -0.00127  -0.00038   0.00166   0.00044  -0.03506
           d7           0.00658  -0.00757   0.00044   0.00016  -0.06297
           r8          -0.00327   0.00327   0.00253   0.00327   0.04073
           a8           0.01217  -0.00006   0.01600  -0.01217  -0.03597
           d8           0.00751   0.00561  -0.01068   0.00751   0.05489
                          a6        d6        r7        a7        d7
           a6           0.44585
           d6          -0.00265   0.43046
           r7          -0.03506   0.06297   0.42420
           a7           0.14618  -0.10429   0.00779   0.44585
           d7           0.10429  -0.23487  -0.00956   0.00265   0.43046
           r8          -0.03697  -0.05078   0.04073  -0.03697   0.05078
           a8           0.12985   0.08875  -0.03597   0.12985  -0.08875
           d8          -0.08969  -0.18194  -0.05489   0.08969  -0.18194
                          r8        a8        d8
           r8           0.22697
           a8          -0.00121   0.41709
           d8           0.00000   0.00000   0.38034
 ITU=  1  0
     Eigenvalues ---    0.01326   0.11307   0.14011   0.16818   0.18274
     Eigenvalues ---    0.23959   0.27110   0.29478   0.34431   0.37967
     Eigenvalues ---    0.42151   0.45004   0.50699   0.65700   0.66266
     Eigenvalues ---    0.74813   0.75393   0.79492
 RFO step:  Lambda=-1.81917141D-05 EMin= 1.32619981D-02
 Quintic linear search produced a step of -0.05710.
 Variable       Old X    -DE/DX   Delta X   Delta X   Delta X     New X
                                 (Linear)    (Quad)   (Total)
    r2        2.93595   0.00128  -0.00154   0.00512   0.00359   2.93953
    r3        3.34537   0.00023   0.00157  -0.00307  -0.00150   3.34387
    a3        1.93220  -0.00001   0.00159  -0.00110   0.00048   1.93269
    r4        2.51402   0.00235   0.00350   0.00158   0.00508   2.51911
    a4        1.90599   0.00062   0.00173  -0.00126   0.00047   1.90646
    d4        4.17975  -0.00002  -0.00072  -0.00006  -0.00078   4.17897
    r5        2.51402   0.00235   0.00350   0.00158   0.00508   2.51911
    a5        1.90599   0.00062   0.00173  -0.00126   0.00047   1.90646
    d5        2.10343   0.00002   0.00072   0.00006   0.00078   2.10422
    r6        2.51401   0.00235   0.00351   0.00158   0.00510   2.51911
    a6        1.90599   0.00062   0.00169  -0.00121   0.00047   1.90646
    d6        1.03817  -0.00002  -0.00076  -0.00003  -0.00079   1.03738
    r7        2.51401   0.00235   0.00351   0.00158   0.00510   2.51911
    a7        1.90599   0.00062   0.00169  -0.00121   0.00047   1.90646
    d7        5.24501   0.00002   0.00076   0.00003   0.00079   5.24581
    r8        3.34541   0.00022   0.00152  -0.00305  -0.00153   3.34388
    a8        1.93220  -0.00001   0.00155  -0.00106   0.00048   1.93269
    d8        3.14159   0.00000   0.00000   0.00000   0.00000   3.14159
         Item               Value     Threshold  Converged?
 Maximum Force            0.002351     0.000002     NO 
 RMS     Force            0.001187     0.000001     NO 
 Maximum Displacement     0.005096     0.000006     NO 
 RMS     Displacement     0.002634     0.000004     NO 
 Predicted change in Energy=-2.579938D-05
 GradGradGradGradGradGradGradGradGradGradGradGradGradGradGradGradGradGrad

 ---------------------------------------------------------------------------------------------------
                            Z-MATRIX (ANGSTROMS AND DEGREES)
   CD    Cent   Atom    N1       Length/X        N2       Alpha/Y        N3        Beta/Z          J
 ---------------------------------------------------------------------------------------------------
      1      1  C 
      2      2  C        1   1.555534(     1)
      3      3  Cl       1   1.769500(     2)      2  110.735(     8)
      4      4  F        1   1.333054(     3)      2  109.232(     9)      3  239.437(    14)      0
      5      5  F        1   1.333054(     4)      2  109.232(    10)      3  120.563(    15)      0
      6      6  F        2   1.333054(     5)      1  109.232(    11)      3   59.437(    16)      0
      7      7  F        2   1.333054(     6)      1  109.232(    12)      3  300.563(    17)      0
      8      8  Cl       2   1.769503(     7)      1  110.735(    13)      3  180.000(    18)      0
 ---------------------------------------------------------------------------------------------------
                         Z-Matrix orientation:                         
 ---------------------------------------------------------------------
 Center     Atomic      Atomic             Coordinates (Angstroms)
 Number     Number       Type             X           Y           Z
 ---------------------------------------------------------------------
      1          6           0        0.000000    0.000000    0.000000
      2          6           0        0.000000    0.000000    1.555534
      3         17           0        1.654889    0.000000   -0.626477
      4          9           0       -0.640003    1.083797   -0.439105
      5          9           0       -0.640003   -1.083797   -0.439105
      6          9           0        0.640000    1.083797    1.994643
      7          9           0        0.640000   -1.083797    1.994643
      8         17           0       -1.654892    0.000000    2.182013
 ---------------------------------------------------------------------
                    Distance matrix (angstroms):
                    1          2          3          4          5
     1  C    0.000000
     2  C    1.555534   0.000000
     3  Cl   1.769500   2.738582   0.000000
     4  F    1.333054   2.358560   2.544848   0.000000
     5  F    1.333054   2.358560   2.544848   2.167594   0.000000
     6  F    2.358562   1.333054   3.012454   2.749825   3.501428
     7  F    2.358562   1.333054   3.012454   3.501428   2.749825
     8  Cl   2.738585   1.769503   4.340767   3.012453   3.012453
                    6          7          8
     6  F    0.000000
     7  F    2.167594   0.000000
     8  Cl   2.544848   2.544848   0.000000
 Stoichiometry    C2Cl2F4
 Framework group  CS[SG(C2Cl2),X(F4)]
 Deg. of freedom    11
 Full point group                 CS      NOp   2
 Omega: Change in point group or standard orientation.

 Old FWG=C01  [X(C2Cl2F4)]
 New FWG=CS   [SG(C2Cl2),X(F4)]
 Largest Abelian subgroup         CS      NOp   2
 Largest concise Abelian subgroup CS      NOp   2
                         Standard orientation:                         
 ---------------------------------------------------------------------
 Center     Atomic      Atomic             Coordinates (Angstroms)
 Number     Number       Type             X           Y           Z
 ---------------------------------------------------------------------
      1          6           0       -0.362041   -0.688367    0.000000
      2          6           0        0.362038    0.688367   -0.000000
      3         17           0       -2.118325   -0.472508    0.000000
      4          9           0        0.000001   -1.374912    1.083797
      5          9           0        0.000001   -1.374912   -1.083797
      6          9           0        0.000001    1.374913    1.083797
      7          9           0        0.000001    1.374913   -1.083797
      8         17           0        2.118325    0.472507   -0.000000
 ---------------------------------------------------------------------
 Rotational constants (GHZ):           2.2205672           1.1523656           1.0364169
 Basis read from rwf:  (5D, 7F)
 There are   128 symmetry adapted cartesian basis functions of A'  symmetry.
 There are    80 symmetry adapted cartesian basis functions of A"  symmetry.
 There are   116 symmetry adapted basis functions of A'  symmetry.
 There are    76 symmetry adapted basis functions of A"  symmetry.
   192 basis functions,   392 primitive gaussians,   208 cartesian basis functions
    41 alpha electrons       41 beta electrons
       nuclear repulsion energy       612.0853604605 Hartrees.
 NAtoms=    8 NActive=    8 NUniq=    6 SFac= 1.78D+00 NAtFMM=   60 NAOKFM=F Big=F
 Integral buffers will be    131072 words long.
 Raffenetti 2 integral format.
 Two-electron integral symmetry is turned on.
 Nuclear repulsion after empirical dispersion term =      612.0827862971 Hartrees.
 One-electron integrals computed using PRISM.
 NBasis=   192 RedAO= T EigKep=  2.47D-04  NBF=   116    76
 NBsUse=   192 1.00D-06 EigRej= -1.00D+00 NBFU=   116    76
 Initial guess from the checkpoint file:  "checkpoint.chk"
 B after Tr=    -0.000000    0.000000   -0.000000
         Rot=    0.980508   -0.000000   -0.000000   -0.196480 Ang= -22.66 deg.
 Initial guess orbital symmetries:
       Occupied  (A') (A') (A') (A') (A") (A") (A') (A') (A') (A')
                 (A') (A') (A') (A') (A") (A") (A') (A') (A") (A")
                 (A') (A') (A') (A') (A') (A") (A") (A') (A') (A')
                 (A") (A") (A") (A') (A") (A') (A') (A') (A") (A")
                 (A')
       Virtual   (A') (A') (A') (A') (A') (A") (A") (A') (A') (A")
                 (A") (A') (A') (A') (A") (A') (A') (A') (A') (A")
                 (A") (A') (A") (A") (A') (A') (A') (A") (A') (A")
                 (A') (A') (A") (A') (A") (A') (A') (A') (A") (A")
                 (A') (A') (A') (A') (A') (A") (A") (A') (A") (A')
                 (A') (A') (A') (A") (A") (A') (A") (A') (A") (A')
                 (A') (A") (A') (A") (A") (A') (A') (A') (A') (A")
                 (A") (A') (A') (A") (A") (A") (A') (A') (A') (A")
                 (A") (A") (A') (A") (A') (A') (A') (A") (A') (A")
                 (A') (A') (A') (A") (A") (A') (A") (A") (A') (A')
                 (A') (A') (A') (A") (A') (A') (A") (A") (A') (A')
                 (A") (A') (A') (A") (A') (A") (A") (A') (A') (A")
                 (A') (A') (A") (A") (A') (A') (A') (A") (A") (A")
                 (A") (A") (A") (A") (A') (A') (A') (A") (A') (A')
                 (A') (A") (A') (A') (A") (A') (A') (A') (A") (A')
                 (A")
 Requested convergence on RMS density matrix=1.00D-08 within 128 cycles.
 Requested convergence on MAX density matrix=1.00D-06.
 Requested convergence on             energy=1.00D-06.
 No special actions if energy rises.
 SCF Done:  E(RwB97XD) =  -1395.77082366     A.U. after    8 cycles
            NFock=  8  Conv=0.85D-08     -V/T= 2.0015
 DoSCS=F DFT=T ScalE2(SS,OS)=  1.000000  1.000000
 Range of M.O.s used for correlation:     1   192
 NBasis=   192 NAE=    41 NBE=    41 NFC=     0 NFV=     0
 NROrb=    192 NOA=    41 NOB=    41 NVA=   151 NVB=   151

 **** Warning!!: The largest alpha MO coefficient is  0.17717619D+02

 Symmetrizing basis deriv contribution to polar:
 IMax=3 JMax=2 DiffMx= 0.00D+00
 G2DrvN: will do     9 centers at a time, making    1 passes.
 Calling FoFCou, ICntrl=  3107 FMM=F I1Cent=   0 AccDes= 0.00D+00.
 End of G2Drv F.D. properties file   721 does not exist.
 End of G2Drv F.D. properties file   722 does not exist.
 End of G2Drv F.D. properties file   788 does not exist.
          IDoAtm=11111111
          Differentiating once with respect to electric field.
                with respect to dipole field.
          Differentiating once with respect to nuclear coordinates.
 CalDSu exits because no D1Ps are significant.
          There are    21 degrees of freedom in the 1st order CPHF.  IDoFFX=4 NUNeed=    21.
     21 vectors produced by pass  0 Test12= 2.95D-14 4.76D-09 XBig12= 2.90D+01 2.48D+00.
 AX will form    21 AO Fock derivatives at one time.
     21 vectors produced by pass  1 Test12= 2.95D-14 4.76D-09 XBig12= 3.23D+00 3.61D-01.
     21 vectors produced by pass  2 Test12= 2.95D-14 4.76D-09 XBig12= 3.79D-01 1.03D-01.
     21 vectors produced by pass  3 Test12= 2.95D-14 4.76D-09 XBig12= 1.68D-02 2.59D-02.
     21 vectors produced by pass  4 Test12= 2.95D-14 4.76D-09 XBig12= 3.00D-04 3.87D-03.
     21 vectors produced by pass  5 Test12= 2.95D-14 4.76D-09 XBig12= 1.96D-06 2.54D-04.
     21 vectors produced by pass  6 Test12= 2.95D-14 4.76D-09 XBig12= 1.20D-08 1.77D-05.
     13 vectors produced by pass  7 Test12= 2.95D-14 4.76D-09 XBig12= 8.10D-11 1.22D-06.
      4 vectors produced by pass  8 Test12= 2.95D-14 4.76D-09 XBig12= 5.93D-13 1.15D-07.
      2 vectors produced by pass  9 Test12= 2.95D-14 4.76D-09 XBig12= 3.70D-15 1.20D-08.
 InvSVY:  IOpt=1 It=  1 EMax= 5.33D-15
 Solved reduced A of dimension   166 with    21 vectors.
 Isotropic polarizability for W=    0.000000       57.94 Bohr**3.
 End of Minotr F.D. properties file   721 does not exist.
 End of Minotr F.D. properties file   722 does not exist.
 End of Minotr F.D. properties file   788 does not exist.
 Calling FoFJK, ICntrl=    100127 FMM=F ISym2X=1 I1Cent= 0 IOpClX= 0 NMat=1 NMatS=1 NMatT=0.
 ***** Axes restored to original set *****
 -------------------------------------------------------------------
 Center     Atomic                   Forces (Hartrees/Bohr)
 Number     Number              X              Y              Z
 -------------------------------------------------------------------
      1        6          -0.000059754    0.000000000    0.000135908
      2        6           0.000058210   -0.000000000   -0.000134579
      3       17           0.000062143   -0.000000000   -0.000045331
      4        9           0.000018191   -0.000029849    0.000006848
      5        9           0.000018191    0.000029849    0.000006848
      6        9          -0.000017789   -0.000029824   -0.000007213
      7        9          -0.000017789    0.000029824   -0.000007213
      8       17          -0.000061402    0.000000000    0.000044733
 -------------------------------------------------------------------
 Cartesian Forces:  Max     0.000135908 RMS     0.000050118
 -----------------------------------------------------------------------------------------------
                       Internal Coordinate Forces (Hartree/Bohr or radian)
  Cent   Atom   N1       Length/X         N2         Alpha/Y        N3         Beta/Z          J
 -----------------------------------------------------------------------------------------------
      1  C 
      2  C        1  -0.000104(     1)
      3  Cl       1   0.000074(     2)      2   0.000068(     8)
      4  F        1  -0.000035(     3)      2   0.000013(     9)      3   0.000001(    14)     0
      5  F        1  -0.000035(     4)      2   0.000013(    10)      3  -0.000001(    15)     0
      6  F        2  -0.000035(     5)      1   0.000012(    11)      3   0.000000(    16)     0
      7  F        2  -0.000035(     6)      1   0.000012(    12)      3  -0.000000(    17)     0
      8  Cl       2   0.000073(     7)      1   0.000067(    13)      3   0.000000(    18)     0
 -----------------------------------------------------------------------------------------------
 Internal  Forces:  Max     0.000104273 RMS     0.000045009

 GradGradGradGradGradGradGradGradGradGradGradGradGradGradGradGradGradGrad
 Berny optimization.
 Search for a local minimum.
 Step number   3 out of a maximum of   28
 All quantities printed in internal units (Hartrees-Bohrs-Radians)
 Second derivative matrix not updated -- analytic derivatives used.
 DE= -2.64D-05 DEPred=-2.58D-05 R= 1.02D+00
 TightC=F SS=  1.41D+00  RLast= 1.12D-02 DXNew= 7.6558D-01 3.3530D-02
 Trust test= 1.02D+00 RLast= 1.12D-02 DXMaxT set to 4.55D-01
 The second derivative matrix:
                          r2        r3        a3        r4        a4
           r2           0.26831
           r3           0.01355   0.22761
           a3           0.03918  -0.00127   0.41823
           r4           0.01864   0.04051  -0.03591   0.41669
           a4           0.03811  -0.03677   0.12959   0.00702   0.44299
           d4           0.00743  -0.05051   0.08850   0.00929  -0.00248
           r5           0.01864   0.04051  -0.03591   0.05334  -0.03488
           a5           0.03811  -0.03677   0.12959  -0.03488   0.14547
           d5          -0.00743   0.05051  -0.08850  -0.06249   0.10365
           r6           0.01864   0.00324  -0.00000   0.00471  -0.00036
           a6           0.03811   0.00247   0.01596  -0.00036   0.00145
           d6           0.00743  -0.00328   0.01197   0.00753  -0.00031
           r7           0.01864   0.00324  -0.00000   0.00439   0.02037
           a7           0.03811   0.00247   0.01596   0.02037   0.04453
           d7          -0.00743   0.00328  -0.01197  -0.00071   0.00126
           r8           0.01355   0.00254   0.00990   0.00324   0.00247
           a8           0.03918   0.00990   0.02198  -0.00000   0.01596
           d8           0.00000   0.00000   0.00000  -0.00554   0.01056
                          d4        r5        a5        d5        r6
           d4           0.42861
           r5           0.06249   0.41669
           a5          -0.10365   0.00702   0.44299
           d5          -0.23358  -0.00929   0.00248   0.42861
           r6           0.00753   0.00439   0.02037  -0.00071   0.41669
           a6          -0.00031   0.02037   0.04453   0.00126   0.00702
           d6           0.00007   0.00071  -0.00126   0.00654   0.00929
           r7           0.00071   0.00471  -0.00036  -0.00753   0.05334
           a7          -0.00126  -0.00036   0.00145   0.00031  -0.03488
           d7           0.00654  -0.00753   0.00031   0.00007  -0.06249
           r8          -0.00328   0.00324   0.00247   0.00328   0.04051
           a8           0.01197  -0.00000   0.01596  -0.01197  -0.03591
           d8           0.00739   0.00554  -0.01056   0.00739   0.05469
                          a6        d6        r7        a7        d7
           a6           0.44299
           d6          -0.00248   0.42861
           r7          -0.03488   0.06249   0.41669
           a7           0.14547  -0.10365   0.00702   0.44299
           d7           0.10365  -0.23358  -0.00929   0.00248   0.42861
           r8          -0.03677  -0.05051   0.04051  -0.03677   0.05051
           a8           0.12959   0.08850  -0.03591   0.12959  -0.08850
           d8          -0.08956  -0.18125  -0.05469   0.08956  -0.18125
                          r8        a8        d8
           r8           0.22760
           a8          -0.00127   0.41823
           d8           0.00000  -0.00000   0.37861
 ITU=  1  1  0
     Eigenvalues ---    0.01328   0.11235   0.14064   0.16864   0.18075
     Eigenvalues ---    0.23713   0.27121   0.29485   0.34103   0.37349
     Eigenvalues ---    0.41530   0.44268   0.49935   0.65421   0.66109
     Eigenvalues ---    0.74498   0.74977   0.79102
 RFO step:  Lambda=-1.11581697D-07 EMin= 1.32750836D-02
 Quintic linear search produced a step of -0.02282.
 Variable       Old X    -DE/DX   Delta X   Delta X   Delta X     New X
                                 (Linear)    (Quad)   (Total)
    r2        2.93953  -0.00010  -0.00008  -0.00039  -0.00047   2.93906
    r3        3.34387   0.00007   0.00003   0.00037   0.00041   3.34428
    a3        1.93269   0.00007  -0.00001   0.00013   0.00012   1.93281
    r4        2.51911  -0.00004  -0.00012   0.00003  -0.00009   2.51902
    a4        1.90646   0.00001  -0.00001   0.00006   0.00005   1.90651
    d4        4.17897   0.00000   0.00002   0.00002   0.00004   4.17901
    r5        2.51911  -0.00004  -0.00012   0.00003  -0.00009   2.51902
    a5        1.90646   0.00001  -0.00001   0.00006   0.00005   1.90651
    d5        2.10422  -0.00000  -0.00002  -0.00002  -0.00004   2.10418
    r6        2.51911  -0.00004  -0.00012   0.00003  -0.00009   2.51902
    a6        1.90646   0.00001  -0.00001   0.00006   0.00005   1.90651
    d6        1.03738   0.00000   0.00002   0.00002   0.00004   1.03742
    r7        2.51911  -0.00004  -0.00012   0.00003  -0.00009   2.51902
    a7        1.90646   0.00001  -0.00001   0.00006   0.00005   1.90651
    d7        5.24581  -0.00000  -0.00002  -0.00002  -0.00004   5.24577
    r8        3.34388   0.00007   0.00004   0.00037   0.00040   3.34428
    a8        1.93269   0.00007  -0.00001   0.00013   0.00012   1.93281
    d8        3.14159   0.00000  -0.00000   0.00000   0.00000   3.14159
         Item               Value     Threshold  Converged?
 Maximum Force            0.000104     0.000002     NO 
 RMS     Force            0.000045     0.000001     NO 
 Maximum Displacement     0.000473     0.000006     NO 
 RMS     Displacement     0.000187     0.000004     NO 
 Predicted change in Energy=-7.072901D-08
 GradGradGradGradGradGradGradGradGradGradGradGradGradGradGradGradGradGrad

 ---------------------------------------------------------------------------------------------------
                            Z-MATRIX (ANGSTROMS AND DEGREES)
   CD    Cent   Atom    N1       Length/X        N2       Alpha/Y        N3        Beta/Z          J
 ---------------------------------------------------------------------------------------------------
      1      1  C 
      2      2  C        1   1.555284(     1)
      3      3  Cl       1   1.769716(     2)      2  110.742(     8)
      4      4  F        1   1.333007(     3)      2  109.235(     9)      3  239.440(    14)      0
      5      5  F        1   1.333007(     4)      2  109.235(    10)      3  120.560(    15)      0
      6      6  F        2   1.333007(     5)      1  109.235(    11)      3   59.440(    16)      0
      7      7  F        2   1.333007(     6)      1  109.235(    12)      3  300.560(    17)      0
      8      8  Cl       2   1.769716(     7)      1  110.742(    13)      3  180.000(    18)      0
 ---------------------------------------------------------------------------------------------------
                         Z-Matrix orientation:                         
 ---------------------------------------------------------------------
 Center     Atomic      Atomic             Coordinates (Angstroms)
 Number     Number       Type             X           Y           Z
 ---------------------------------------------------------------------
      1          6           0        0.000000    0.000000    0.000000
      2          6           0        0.000000    0.000000    1.555284
      3         17           0        1.655013    0.000000   -0.626758
      4          9           0       -0.639927    1.083766   -0.439150
      5          9           0       -0.639927   -1.083766   -0.439150
      6          9           0        0.639927    1.083766    1.994434
      7          9           0        0.639927   -1.083766    1.994434
      8         17           0       -1.655013    0.000000    2.182042
 ---------------------------------------------------------------------
                    Distance matrix (angstroms):
                    1          2          3          4          5
     1  C    0.000000
     2  C    1.555284   0.000000
     3  Cl   1.769716   2.738681   0.000000
     4  F    1.333007   2.358352   2.544896   0.000000
     5  F    1.333007   2.358352   2.544896   2.167532   0.000000
     6  F    2.358352   1.333007   3.012573   2.749611   3.501222
     7  F    2.358352   1.333007   3.012573   3.501222   2.749611
     8  Cl   2.738681   1.769716   4.341155   3.012573   3.012573
                    6          7          8
     6  F    0.000000
     7  F    2.167532   0.000000
     8  Cl   2.544896   2.544896   0.000000
 Stoichiometry    C2Cl2F4
 Framework group  C2H[SGH(C2Cl2),X(F4)]
 Deg. of freedom     6
 Full point group                 C2H     NOp   4
 Omega: Change in point group or standard orientation.

 Old FWG=CS   [SG(C2Cl2),X(F4)]
 New FWG=C02H [SGH(C2Cl2),X(F4)]
 Largest Abelian subgroup         C2H     NOp   4
 Largest concise Abelian subgroup C2H     NOp   4
                         Standard orientation:                         
 ---------------------------------------------------------------------
 Center     Atomic      Atomic             Coordinates (Angstroms)
 Number     Number       Type             X           Y           Z
 ---------------------------------------------------------------------
      1          6           0       -0.775057    0.063360    0.000000
      2          6           0        0.775057   -0.063360    0.000000
      3         17           0       -1.264886    1.763936    0.000000
      4          9           0       -1.264886   -0.538660    1.083766
      5          9           0       -1.264886   -0.538660   -1.083766
      6          9           0        1.264886    0.538660    1.083766
      7          9           0        1.264886    0.538660   -1.083766
      8         17           0        1.264886   -1.763936    0.000000
 ---------------------------------------------------------------------
 Rotational constants (GHZ):           2.2208415           1.1522346           1.0363492
 Basis read from rwf:  (5D, 7F)
 There are    64 symmetry adapted cartesian basis functions of AG  symmetry.
 There are    40 symmetry adapted cartesian basis functions of BG  symmetry.
 There are    40 symmetry adapted cartesian basis functions of AU  symmetry.
 There are    64 symmetry adapted cartesian basis functions of BU  symmetry.
 There are    58 symmetry adapted basis functions of AG  symmetry.
 There are    38 symmetry adapted basis functions of BG  symmetry.
 There are    38 symmetry adapted basis functions of AU  symmetry.
 There are    58 symmetry adapted basis functions of BU  symmetry.
   192 basis functions,   392 primitive gaussians,   208 cartesian basis functions
    41 alpha electrons       41 beta electrons
       nuclear repulsion energy       612.0810106198 Hartrees.
 NAtoms=    8 NActive=    8 NUniq=    3 SFac= 4.00D+00 NAtFMM=   60 NAOKFM=F Big=F
 Integral buffers will be    131072 words long.
 Raffenetti 2 integral format.
 Two-electron integral symmetry is turned on.
 Nuclear repulsion after empirical dispersion term =      612.0784365115 Hartrees.
 One-electron integrals computed using PRISM.
 NBasis=   192 RedAO= T EigKep=  2.46D-04  NBF=    58    38    38    58
 NBsUse=   192 1.00D-06 EigRej= -1.00D+00 NBFU=    58    38    38    58
 Initial guess from the checkpoint file:  "checkpoint.chk"
 B after Tr=    -0.000000   -0.000000    0.000000
         Rot=    0.834216   -0.000000    0.000000    0.551438 Ang=  66.93 deg.
 Initial guess orbital symmetries:
       Occupied  (?A) (?A) (AG) (BU) (?B) (?B) (AG) (BU) (?A) (?A)
                 (?A) (?A) (?A) (?A) (?B) (?B) (AG) (BU) (AU) (BG)
                 (AG) (BU) (AG) (BU) (AG) (AU) (BG) (BU) (AG) (BU)
                 (BG) (AU) (AU) (AG) (BG) (BU) (AG) (BU) (AU) (BG)
                 (AG)
       Virtual   (BU) (AG) (BU) (AG) (BU) (AU) (BG) (AG) (AG) (AU)
                 (BG) (BU) (AG) (BU) (AU) (BU) (AG) (BU) (AG) (AU)
                 (BG) (BU) (AU) (BG) (BU) (AG) (BU) (AU) (BU) (BG)
                 (AG) (AG) (BG) (AG) (BG) (AG) (BU) (BU) (AU) (AU)
                 (AG) (BU) (BU) (AG) (AG) (AU) (BG) (AG) (BG) (BU)
                 (BU) (AG) (AU) (BU) (BG) (AG) (BG) (BU) (AU) (BU)
                 (AG) (AU) (AG) (AU) (BG) (BU) (AG) (BU) (AG) (AU)
                 (BG) (BU) (AG) (BG) (AU) (AU) (AG) (BU) (BU) (BG)
                 (BG) (AU) (BU) (BG) (AG) (AG) (BU) (AU) (AG) (BG)
                 (BU) (BU) (AG) (AU) (BG) (AG) (AU) (BG) (BU) (BU)
                 (AG) (BU) (AG) (AU) (AG) (BU) (BG) (BG) (BU) (AG)
                 (AU) (BU) (AG) (AU) (AG) (AU) (BG) (BU) (AG) (BG)
                 (AG) (BU) (BG) (AU) (AG) (BU) (BU) (AU) (BG) (AU)
                 (AU) (BG) (AU) (BG) (AG) (BU) (AG) (BG) (BU) (AG)
                 (BU) (AU) (AG) (BU) (BG) (BU) (AG) (BU) (BG) (AG)
                 (AU)
 Requested convergence on RMS density matrix=1.00D-08 within 128 cycles.
 Requested convergence on MAX density matrix=1.00D-06.
 Requested convergence on             energy=1.00D-06.
 No special actions if energy rises.
 An orbital has undefined symmetry, so N**3 symmetry is turned off.
 SCF Done:  E(RwB97XD) =  -1395.77082369     A.U. after    6 cycles
            NFock=  6  Conv=0.95D-08     -V/T= 2.0015
 DoSCS=F DFT=T ScalE2(SS,OS)=  1.000000  1.000000
 Range of M.O.s used for correlation:     1   192
 NBasis=   192 NAE=    41 NBE=    41 NFC=     0 NFV=     0
 NROrb=    192 NOA=    41 NOB=    41 NVA=   151 NVB=   151

 **** Warning!!: The largest alpha MO coefficient is  0.17720718D+02

 Symmetrizing basis deriv contribution to polar:
 IMax=3 JMax=2 DiffMx= 0.00D+00
 G2DrvN: will do     9 centers at a time, making    1 passes.
 Calling FoFCou, ICntrl=  3107 FMM=F I1Cent=   0 AccDes= 0.00D+00.
 End of G2Drv F.D. properties file   721 does not exist.
 End of G2Drv F.D. properties file   722 does not exist.
 End of G2Drv F.D. properties file   788 does not exist.
          IDoAtm=11111111
          Differentiating once with respect to electric field.
                with respect to dipole field.
          Differentiating once with respect to nuclear coordinates.
 CalDSu exits because no D1Ps are significant.
          There are    12 degrees of freedom in the 1st order CPHF.  IDoFFX=4 NUNeed=    12.
     12 vectors produced by pass  0 Test12= 5.16D-14 8.33D-09 XBig12= 2.76D+01 2.17D+00.
 AX will form    12 AO Fock derivatives at one time.
     12 vectors produced by pass  1 Test12= 5.16D-14 8.33D-09 XBig12= 3.61D+00 3.74D-01.
     12 vectors produced by pass  2 Test12= 5.16D-14 8.33D-09 XBig12= 5.81D-01 1.52D-01.
     12 vectors produced by pass  3 Test12= 5.16D-14 8.33D-09 XBig12= 4.33D-02 5.73D-02.
     12 vectors produced by pass  4 Test12= 5.16D-14 8.33D-09 XBig12= 1.03D-03 9.41D-03.
     12 vectors produced by pass  5 Test12= 5.16D-14 8.33D-09 XBig12= 3.10D-05 9.79D-04.
     12 vectors produced by pass  6 Test12= 5.16D-14 8.33D-09 XBig12= 4.40D-07 1.21D-04.
     12 vectors produced by pass  7 Test12= 5.16D-14 8.33D-09 XBig12= 3.88D-09 9.54D-06.
      5 vectors produced by pass  8 Test12= 5.16D-14 8.33D-09 XBig12= 3.37D-11 1.04D-06.
      3 vectors produced by pass  9 Test12= 5.16D-14 8.33D-09 XBig12= 2.68D-13 7.93D-08.
 InvSVY:  IOpt=1 It=  1 EMax= 4.44D-15
 Solved reduced A of dimension   104 with    12 vectors.
 Isotropic polarizability for W=    0.000000       57.96 Bohr**3.
 End of Minotr F.D. properties file   721 does not exist.
 End of Minotr F.D. properties file   722 does not exist.
 End of Minotr F.D. properties file   788 does not exist.
 Calling FoFJK, ICntrl=    100127 FMM=F ISym2X=1 I1Cent= 0 IOpClX= 0 NMat=1 NMatS=1 NMatT=0.
 ***** Axes restored to original set *****
 -------------------------------------------------------------------
 Center     Atomic                   Forces (Hartrees/Bohr)
 Number     Number              X              Y              Z
 -------------------------------------------------------------------
      1        6           0.000032063   -0.000000000    0.000011878
      2        6          -0.000032063    0.000000000   -0.000011878
      3       17          -0.000021117    0.000000000    0.000006695
      4        9          -0.000008537   -0.000001953   -0.000005689
      5        9          -0.000008537    0.000001953   -0.000005689
      6        9           0.000008537   -0.000001953    0.000005689
      7        9           0.000008537    0.000001953    0.000005689
      8       17           0.000021117   -0.000000000   -0.000006695
 -------------------------------------------------------------------
 Cartesian Forces:  Max     0.000032063 RMS     0.000012510
 -----------------------------------------------------------------------------------------------
                       Internal Coordinate Forces (Hartree/Bohr or radian)
  Cent   Atom   N1       Length/X         N2         Alpha/Y        N3         Beta/Z          J
 -----------------------------------------------------------------------------------------------
      1  C 
      2  C        1  -0.000007(     1)
      3  Cl       1  -0.000022(     2)      2   0.000004(     8)
      4  F        1   0.000004(     3)      2   0.000011(     9)      3  -0.000020(    14)     0
      5  F        1   0.000004(     4)      2   0.000011(    10)      3   0.000020(    15)     0
      6  F        2   0.000004(     5)      1   0.000011(    11)      3  -0.000020(    16)     0
      7  F        2   0.000004(     6)      1   0.000011(    12)      3   0.000020(    17)     0
      8  Cl       2  -0.000022(     7)      1   0.000004(    13)      3  -0.000000(    18)     0
 -----------------------------------------------------------------------------------------------
 Internal  Forces:  Max     0.000022119 RMS     0.000013394

 GradGradGradGradGradGradGradGradGradGradGradGradGradGradGradGradGradGrad
 Berny optimization.
 Search for a local minimum.
 Step number   4 out of a maximum of   28
 All quantities printed in internal units (Hartrees-Bohrs-Radians)
 Second derivative matrix not updated -- analytic derivatives used.
 DE= -3.60D-08 DEPred=-7.07D-08 R= 5.09D-01
[...]
               7          8
     1  C   -0.021656  -0.268748
     2  C   -0.427189   0.265824
     3  Cl  -0.005498   0.059333
     4  F    0.006603  -0.005498
     5  F   -0.019889  -0.005498
     6  F   -0.155812  -0.167396
     7  F   10.401288  -0.167396
     8  Cl  -0.167396  17.803245
 Mulliken charges:
               1
     1  C    1.734770
     2  C    1.734770
     3  Cl  -0.513867
     4  F   -0.610451
     5  F   -0.610451
     6  F   -0.610451
     7  F   -0.610451
     8  Cl  -0.513867
 Sum of Mulliken charges =  -0.00000
 Mulliken charges with hydrogens summed into heavy atoms:
               1
     1  C    1.734770
     2  C    1.734770
     3  Cl  -0.513867
     4  F   -0.610451
     5  F   -0.610451
     6  F   -0.610451
     7  F   -0.610451
     8  Cl  -0.513867
 APT charges:
               1
     1  C    1.299229
     2  C    1.299229
     3  Cl  -0.288221
     4  F   -0.505504
     5  F   -0.505504
     6  F   -0.505504
     7  F   -0.505504
     8  Cl  -0.288221
 Sum of APT charges =   0.00000
 APT charges with hydrogens summed into heavy atoms:
               1
     1  C    1.299229
     2  C    1.299229
     3  Cl  -0.288221
     4  F   -0.505504
     5  F   -0.505504
     6  F   -0.505504
     7  F   -0.505504
     8  Cl  -0.288221
 Electronic spatial extent (au):  <R**2>=           1117.5403
 Charge=             -0.0000 electrons
 Dipole moment (field-independent basis, Debye):
    X=             -0.0000    Y=             -0.0000    Z=              0.0000  Tot=              0.0000
 Quadrupole moment (field-independent basis, Debye-Ang):
   XX=            -56.9635   YY=            -54.0834   ZZ=            -57.8872
   XY=             -1.7341   XZ=             -0.0000   YZ=             -0.0000
 Traceless Quadrupole moment (field-independent basis, Debye-Ang):
   XX=             -0.6521   YY=              2.2280   ZZ=             -1.5759
   XY=             -1.7341   XZ=             -0.0000   YZ=             -0.0000
 Octapole moment (field-independent basis, Debye-Ang**2):
  XXX=             -0.0000  YYY=              0.0000  ZZZ=              0.0000  XYY=             -0.0000
  XXY=              0.0000  XXZ=              0.0000  XZZ=             -0.0000  YZZ=              0.0000
  YYZ=              0.0000  XYZ=              0.0000
 Hexadecapole moment (field-independent basis, Debye-Ang**3):
 XXXX=           -521.8272 YYYY=           -501.2974 ZZZZ=           -188.6324 XXXY=            124.8196
 XXXZ=             -0.0000 YYYX=            103.2438 YYYZ=             -0.0000 ZZZX=             -0.0000
 ZZZY=             -0.0000 XXYY=           -167.3414 XXZZ=           -121.1667 YYZZ=           -124.9315
 XXYZ=             -0.0000 YYXZ=             -0.0000 ZZXY=             44.1745
 N-N= 6.120781260935D+02 E-N=-4.542297449108D+03  KE= 1.393693138430D+03
 Symmetry AG   KE= 5.509941435935D+02
 Symmetry BG   KE= 1.483577676779D+02
 Symmetry AU   KE= 1.473100781997D+02
 Symmetry BU   KE= 5.470311489593D+02
  Exact polarizability:      55.457      -9.150      68.542      -0.000      -0.000      49.869
 Approx polarizability:      57.614      -5.262      75.744      -0.000      -0.000      59.681
 Rotating derivatives to standard orientation.
 Full mass-weighted force constant matrix:
 Low frequencies ---    0.0029    0.0031    0.0034    3.7405    4.3360    9.0577
 Low frequencies ---   65.4308  165.4606  223.0065
 Diagonal vibrational polarizability:
        6.2539832      16.9028761       8.1845680
 Harmonic frequencies (cm**-1), IR intensities (KM/Mole), Raman scattering
 activities (A**4/AMU), depolarization ratios for plane and unpolarized
 incident light, reduced masses (AMU), force constants (mDyne/A),
 and normal coordinates:
                      1                      2                      3
                     AU                     BU                     AU
 Frequencies --     65.4308               165.4606               223.0065
 Red. masses --     22.9529                24.6960                18.5626
 Frc consts  --      0.0579                 0.3984                 0.5439
 IR Inten    --      0.1655                 1.1130                 1.0273
  Atom  AN      X      Y      Z        X      Y      Z        X      Y      Z
     1   6    -0.00  -0.00  -0.10    -0.18  -0.14  -0.00    -0.00  -0.00  -0.19
     2   6     0.00   0.00  -0.10    -0.18  -0.14   0.00     0.00   0.00  -0.19
     3  17     0.00  -0.00   0.36     0.44   0.07   0.00    -0.00   0.00   0.05
     4   9    -0.06  -0.30  -0.30    -0.35  -0.02  -0.02     0.48  -0.05   0.02
     5   9     0.06   0.30  -0.30    -0.35  -0.02   0.02    -0.48   0.05   0.02
     6   9     0.06   0.30  -0.30    -0.35  -0.02   0.02    -0.48   0.05   0.02
     7   9    -0.06  -0.30  -0.30    -0.35  -0.02  -0.02     0.48  -0.05   0.02
     8  17    -0.00   0.00   0.36     0.44   0.07  -0.00     0.00  -0.00   0.05
                      4                      5                      6
                     AG                     BG                     AG
 Frequencies --    252.5618               323.2902               360.4641
 Red. masses --     25.5015                20.8991                18.9547
 Frc consts  --      0.9584                 1.2870                 1.4511
 IR Inten    --      0.0000                 0.0000                 0.0000
  Atom  AN      X      Y      Z        X      Y      Z        X      Y      Z
     1   6     0.06  -0.18  -0.00     0.00  -0.00  -0.01     0.13   0.08   0.00
     2   6    -0.06   0.18  -0.00     0.00  -0.00   0.01    -0.13  -0.08   0.00
     3  17     0.44  -0.16   0.00    -0.00  -0.00   0.24    -0.03   0.09  -0.00
     4   9     0.15  -0.31  -0.02    -0.32   0.34   0.05     0.44   0.12   0.15
     5   9     0.15  -0.31   0.02     0.32  -0.34   0.05     0.44   0.12  -0.15
     6   9    -0.15   0.31  -0.02    -0.32   0.34  -0.05    -0.44  -0.12   0.15
     7   9    -0.15   0.31   0.02     0.32  -0.34  -0.05    -0.44  -0.12  -0.15
     8  17    -0.44   0.16   0.00    -0.00  -0.00  -0.24     0.03  -0.09  -0.00
                      7                      8                      9
                     AU                     BU                     AG
 Frequencies --    377.8176               437.9588               445.6779
 Red. masses --     19.4393                23.8219                26.7754
 Frc consts  --      1.6349                 2.6921                 3.1335
 IR Inten    --      0.2213                 0.8563                 0.0000
  Atom  AN      X      Y      Z        X      Y      Z        X      Y      Z
     1   6     0.00   0.00  -0.30    -0.06   0.03  -0.00    -0.03  -0.02  -0.00
     2   6    -0.00  -0.00  -0.30    -0.06   0.03   0.00     0.03   0.02  -0.00
     3  17    -0.00  -0.00   0.23    -0.04   0.39   0.00    -0.09   0.49   0.00
     4   9    -0.01   0.41  -0.12     0.06  -0.37  -0.18     0.05  -0.31  -0.17
     5   9     0.01  -0.41  -0.12     0.06  -0.37   0.18     0.05  -0.31   0.17
     6   9     0.01  -0.41  -0.12     0.06  -0.37   0.18    -0.05   0.31  -0.17
     7   9    -0.01   0.41  -0.12     0.06  -0.37  -0.18    -0.05   0.31   0.17
     8  17     0.00   0.00   0.23    -0.04   0.39  -0.00     0.09  -0.49   0.00
                     10                     11                     12
                     BG                     BU                     AG
 Frequencies --    546.4572               610.6560               711.6443
 Red. masses --     17.5756                17.6052                17.7206
 Frc consts  --      3.0922                 3.8680                 5.2875
 IR Inten    --      0.0000                10.5177                 0.0000
  Atom  AN      X      Y      Z        X      Y      Z        X      Y      Z
     1   6    -0.00  -0.00  -0.34    -0.32  -0.18   0.00    -0.20  -0.27  -0.00
     2   6    -0.00  -0.00   0.34    -0.32  -0.18  -0.00     0.20   0.27  -0.00
     3  17    -0.00   0.00   0.08     0.01   0.12  -0.00     0.00   0.10  -0.00
     4   9     0.27   0.24  -0.24     0.09  -0.06   0.41    -0.10  -0.08   0.41
     5   9    -0.27  -0.24  -0.24     0.09  -0.06  -0.41    -0.10  -0.08  -0.41
     6   9     0.27   0.24   0.24     0.09  -0.06  -0.41     0.10   0.08   0.41
     7   9    -0.27  -0.24   0.24     0.09  -0.06   0.41     0.10   0.08  -0.41
     8  17    -0.00   0.00  -0.08     0.01   0.12   0.00    -0.00  -0.10  -0.00
                     13                     14                     15
                     BU                     AG                     BU
 Frequencies --    853.0716              1069.1082              1161.0619
 Red. masses --     13.1549                12.6195                13.8268
 Frc consts  --      5.6404                 8.4984                10.9820
 IR Inten    --    379.6074                 0.0000               357.9604
  Atom  AN      X      Y      Z        X      Y      Z        X      Y      Z
     1   6    -0.48   0.48   0.00    -0.19   0.65   0.00     0.40   0.46   0.00
     2   6    -0.48   0.48  -0.00     0.19  -0.65   0.00     0.40   0.46  -0.00
     3  17     0.07  -0.11   0.00     0.01  -0.04   0.00     0.00  -0.01  -0.00
     4   9     0.08  -0.05  -0.04    -0.01  -0.11   0.09    -0.13  -0.13   0.18
     5   9     0.08  -0.05   0.04    -0.01  -0.11  -0.09    -0.13  -0.13  -0.18
     6   9     0.08  -0.05   0.04     0.01   0.11   0.09    -0.13  -0.13  -0.18
     7   9     0.08  -0.05  -0.04     0.01   0.11  -0.09    -0.13  -0.13   0.18
     8  17     0.07  -0.11  -0.00    -0.01   0.04   0.00     0.00  -0.01   0.00
                     16                     17                     18
                     BG                     AU                     AG
 Frequencies --   1210.5964              1225.2334              1307.6943
 Red. masses --     12.9804                13.5357                12.5834
 Frc consts  --     11.2082                11.9720                12.6783
 IR Inten    --      0.0000               365.1950                 0.0000
  Atom  AN      X      Y      Z        X      Y      Z        X      Y      Z
     1   6    -0.00  -0.00   0.66     0.00  -0.00   0.62     0.67   0.12  -0.00
     2   6    -0.00  -0.00  -0.66    -0.00   0.00   0.62    -0.67  -0.12  -0.00
     3  17     0.00   0.00  -0.01    -0.00   0.00  -0.01    -0.02   0.01   0.00
     4   9     0.05   0.08  -0.16     0.10   0.10  -0.19    -0.09  -0.06   0.09
     5   9    -0.05  -0.08  -0.16    -0.10  -0.10  -0.19    -0.09  -0.06  -0.09
     6   9     0.05   0.08   0.16    -0.10  -0.10  -0.19     0.09   0.06   0.09
     7   9    -0.05  -0.08   0.16     0.10   0.10  -0.19     0.09   0.06  -0.09
     8  17     0.00   0.00   0.01     0.00  -0.00  -0.01     0.02  -0.01   0.00

 -------------------
 - Thermochemistry -
 -------------------
 Temperature   298.150 Kelvin.  Pressure   1.00000 Atm.
 Atom     1 has atomic number  6 and mass  12.00000
 Atom     2 has atomic number  6 and mass  12.00000
 Atom     3 has atomic number 17 and mass  34.96885
 Atom     4 has atomic number  9 and mass  18.99840
 Atom     5 has atomic number  9 and mass  18.99840
 Atom     6 has atomic number  9 and mass  18.99840
 Atom     7 has atomic number  9 and mass  18.99840
 Atom     8 has atomic number 17 and mass  34.96885
 Molecular mass:   169.93132 amu.
 Principal axes and moments of inertia in atomic units:
                           1         2         3
     Eigenvalues --   812.637571566.300941741.44457
           X            0.72062   0.69333  -0.00000
           Y           -0.69333   0.72062  -0.00000
           Z            0.00000   0.00000   1.00000
 This molecule is an asymmetric top.
 Rotational symmetry number  2.
 Warning -- assumption of classical behavior for rotation
           may cause significant error
 Rotational temperatures (Kelvin)      0.10658     0.05530     0.04974
 Rotational constants (GHZ):           2.22084     1.15223     1.03635
 Zero-point vibrational energy      67871.3 (Joules/Mol)
                                   16.22162 (Kcal/Mol)
 Warning -- explicit consideration of  11 degrees of freedom as
           vibrations may cause significant error
 Vibrational temperatures:     94.14   238.06   320.86   363.38   465.14
          (Kelvin)            518.63   543.60   630.13   641.23   786.23
                              878.60  1023.90  1227.38  1538.21  1670.51
                             1741.78  1762.84  1881.48
 
 Zero-point correction=                           0.025851 (Hartree/Particle)
 Thermal correction to Energy=                    0.033335
 Thermal correction to Enthalpy=                  0.034279
 Thermal correction to Gibbs Free Energy=        -0.006723
 Sum of electronic and zero-point Energies=          -1395.744973
 Sum of electronic and thermal Energies=             -1395.737489
 Sum of electronic and thermal Enthalpies=           -1395.736544
 Sum of electronic and thermal Free Energies=        -1395.777546
 
                     E (Thermal)             CV                S
                      KCal/Mol        Cal/Mol-Kelvin    Cal/Mol-Kelvin
 Total                   20.918             25.441             86.295
 Electronic               0.000              0.000              0.000
 Translational            0.889              2.981             41.298
 Rotational               0.889              2.981             27.807
 Vibrational             19.141             19.480             17.190
 Vibration     1          0.597              1.971              4.286
 Vibration     2          0.624              1.885              2.486
 Vibration     3          0.649              1.806              1.935
 Vibration     4          0.664              1.758              1.713
 Vibration     5          0.708              1.629              1.293
 Vibration     6          0.735              1.554              1.120
 Vibration     7          0.748              1.517              1.048
 Vibration     8          0.798              1.387              0.833
 Vibration     9          0.805              1.370              0.809
 Vibration    10          0.902              1.147              0.552
 Vibration    11          0.970              1.009              0.432
                       Q            Log10(Q)             Ln(Q)
 Total Bot       0.123636D+04          3.092144          7.119924
 Total V=0       0.960899D+15         14.982678         34.498890
 Vib (Bot)       0.532872D-10        -10.273377        -23.655325
 Vib (Bot)    1  0.315396D+01          0.498856          1.148659
 Vib (Bot)    2  0.121975D+01          0.086271          0.198646
 Vib (Bot)    3  0.885861D+00         -0.052634         -0.121195
 Vib (Bot)    4  0.771825D+00         -0.112481         -0.258997
 Vib (Bot)    5  0.580318D+00         -0.236334         -0.544179
 Vib (Bot)    6  0.508327D+00         -0.293857         -0.676630
 Vib (Bot)    7  0.479281D+00         -0.319410         -0.735468
 Vib (Bot)    8  0.395360D+00         -0.403007         -0.927959
 Vib (Bot)    9  0.386124D+00         -0.413273         -0.951596
 Vib (Bot)   10  0.288157D+00         -0.540371         -1.244250
 Vib (Bot)   11  0.241839D+00         -0.616473         -1.419481
 Vib (V=0)       0.414150D+02          1.617157          3.723642
 Vib (V=0)    1  0.369335D+01          0.567420          1.306533
 Vib (V=0)    2  0.181825D+01          0.259654          0.597876
 Vib (V=0)    3  0.151723D+01          0.181050          0.416884
 Vib (V=0)    4  0.141963D+01          0.152174          0.350394
 Vib (V=0)    5  0.126601D+01          0.102437          0.235869
 Vib (V=0)    6  0.121302D+01          0.083868          0.193113
 Vib (V=0)    7  0.119261D+01          0.076499          0.176145
 Vib (V=0)    8  0.113742D+01          0.055922          0.128766
 Vib (V=0)    9  0.113174D+01          0.053746          0.123754
 Vib (V=0)   10  0.107709D+01          0.032253          0.074264
 Vib (V=0)   11  0.105542D+01          0.023423          0.053934
 Electronic      0.100000D+01          0.000000          0.000000
 Translational   0.870691D+08          7.939864         18.282213
 Rotational      0.266475D+06          5.425656         12.493036
 ***** Axes restored to original set *****
 -------------------------------------------------------------------
 Center     Atomic                   Forces (Hartrees/Bohr)
 Number     Number              X              Y              Z
 -------------------------------------------------------------------
      1        6           0.000033163   -0.000000000    0.000011787
      2        6          -0.000033163    0.000000000   -0.000011787
      3       17          -0.000021976    0.000000000    0.000007295
      4        9          -0.000008891   -0.000001717   -0.000005804
      5        9          -0.000008891    0.000001717   -0.000005804
      6        9           0.000008891   -0.000001717    0.000005804
      7        9           0.000008891    0.000001717    0.000005804
      8       17           0.000021976   -0.000000000   -0.000007295
 -------------------------------------------------------------------
 Cartesian Forces:  Max     0.000033163 RMS     0.000012930
 -----------------------------------------------------------------------------------------------
                       Internal Coordinate Forces (Hartree/Bohr or radian)
  Cent   Atom   N1       Length/X         N2         Alpha/Y        N3         Beta/Z          J
 -----------------------------------------------------------------------------------------------
      1  C 
      2  C        1  -0.000007(     1)
      3  Cl       1  -0.000023(     2)      2   0.000003(     8)
      4  F        1   0.000005(     3)      2   0.000011(     9)      3  -0.000020(    14)     0
      5  F        1   0.000005(     4)      2   0.000011(    10)      3   0.000020(    15)     0
      6  F        2   0.000005(     5)      1   0.000011(    11)      3  -0.000020(    16)     0
      7  F        2   0.000005(     6)      1   0.000011(    12)      3   0.000020(    17)     0
      8  Cl       2  -0.000023(     7)      1   0.000003(    13)      3  -0.000000(    18)     0
 -----------------------------------------------------------------------------------------------
 Internal  Forces:  Max     0.000023136 RMS     0.000013731
 Dipole is zero, so no output in dipole orientation.

 ----------------------------------------------------------------------

 Electric dipole moment (input orientation):
 (Debye = 10**-18 statcoulomb cm , SI units = C m)
                  (au)            (Debye)         (10**-30 SI)
   Tot        0.000000D+00      0.000000D+00      0.000000D+00
   x          0.000000D+00      0.000000D+00      0.000000D+00
   y          0.000000D+00      0.000000D+00      0.000000D+00
   z          0.000000D+00      0.000000D+00      0.000000D+00

 Dipole polarizability, Alpha (input orientation).
 (esu units = cm**3 , SI units = C**2 m**2 J**-1)
 Alpha(0;0):
               (au)            (10**-24 esu)      (10**-40 SI)
   iso        0.579559D+02      0.858817D+01      0.955563D+01
   aniso      0.229514D+02      0.340105D+01      0.378418D+01
   xx         0.669693D+02      0.992383D+01      0.110417D+02
   yx         0.000000D+00      0.000000D+00      0.000000D+00
   yy         0.498686D+02      0.738976D+01      0.822222D+01
   zx        -0.100915D+02     -0.149540D+01     -0.166386D+01
   zy         0.000000D+00      0.000000D+00      0.000000D+00
   zz         0.570297D+02      0.845093D+01      0.940293D+01

 ----------------------------------------------------------------------


 A MAN BEGINS CUTTING HIS WISDOM TEETH THE 1ST
 TIME HE BITES OFF MORE THAN HE CAN CHEW.
 Error termination request processed by link 9999.
 Error termination via Lnk1e in /apps/gaussian/g16c01/g16/l9999.exe at Thu Jul 30 16:27:47 2020.
 Job cpu time:       0 days  6 hours 34 minutes 30.2 seconds.
 Elapsed time:       0 days  3 hours  9 minutes  1.5 seconds.
 File lengths (MBytes):  RWF=     47 Int=      0 D2E=      0 Chk=      4 Scr=      1
