 Entering Gaussian System, Link 0=g16
 Input=CFC-113.gjf
 Output=CFC-113.log
 Initial command:
 /apps/gaussian/g16c01/g16/l1.exe "/jobfs/9171156.gadi-pbs/Gau-2007479.inp" -scrdir="/jobfs/9171156.gadi-pbs/"
 Entering Link 1 = /apps/gaussian/g16c01/g16/l1.exe PID=   2007480.
  
 Copyright (c) 1988-2019, Gaussian, Inc.  All Rights Reserved.
  
 This is part of the Gaussian(R) 16 program.  It is based on
 the Gaussian(R) 09 system (copyright 2009, Gaussian, Inc.),
 the Gaussian(R) 03 system (copyright 2003, Gaussian, Inc.),
 the Gaussian(R) 98 system (copyright 1998, Gaussian, Inc.),
 the Gaussian(R) 94 system (copyright 1995, Gaussian, Inc.),
 the Gaussian 92(TM) system (copyright 1992, Gaussian, Inc.),
 the Gaussian 90(TM) system (copyright 1990, Gaussian, Inc.),
 the Gaussian 88(TM) system (copyright 1988, Gaussian, Inc.),
 the Gaussian 86(TM) system (copyright 1986, Carnegie Mellon
 University), and the Gaussian 82(TM) system (copyright 1983,
 Carnegie Mellon University). Gaussian is a federally registered
 trademark of Gaussian, Inc.
  
 This software contains proprietary and confidential information,
 including trade secrets, belonging to Gaussian, Inc.
  
 This software is provided under written license and may be
 used, copied, transmitted, or stored only in accord with that
 written license.
  
 The following legend is applicable only to US Government
 contracts under FAR:
  
                    RESTRICTED RIGHTS LEGEND
  
 Use, reproduction and disclosure by the US Government is
 subject to restrictions as set forth in subparagraphs (a)
 and (c) of the Commercial Computer Software - Restricted
 Rights clause in FAR 52.227-19.
  
 Gaussian, Inc.
 340 Quinnipiac St., Bldg. 40, Wallingford CT 06492
  
  
 ---------------------------------------------------------------
 Warning -- This program may not be used in any manner that
 competes with the business of Gaussian, Inc. or will provide
 assistance to any competitor of Gaussian, Inc.  The licensee
 of this program is prohibited from giving any competitor of
 Gaussian, Inc. access to this program.  By using this program,
 the user acknowledges that Gaussian, Inc. is engaged in the
 business of creating and licensing software in the field of
 computational chemistry and represents and warrants to the
 licensee that it is not a competitor of Gaussian, Inc. and that
 it will not use this program in any manner prohibited above.
 ---------------------------------------------------------------
  

 Cite this work as:
 Gaussian 16, Revision C.01,
 M. J. Frisch, G. W. Trucks, H. B. Schlegel, G. E. Scuseria, 
 M. A. Robb, J. R. Cheeseman, G. Scalmani, V. Barone, 
 G. A. Petersson, H. Nakatsuji, X. Li, M. Caricato, A. V. Marenich, 
 J. Bloino, B. G. Janesko, R. Gomperts, B. Mennucci, H. P. Hratchian, 
 J. V. Ortiz, A. F. Izmaylov, J. L. Sonnenberg, D. Williams-Young, 
 F. Ding, F. Lipparini, F. Egidi, J. Goings, B. Peng, A. Petrone, 
 T. Henderson, D. Ranasinghe, V. G. Zakrzewski, J. Gao, N. Rega, 
 G. Zheng, W. Liang, M. Hada, M. Ehara, K. Toyota, R. Fukuda, 
 J. Hasegawa, M. Ishida, T. Nakajima, Y. Honda, O. Kitao, H. Nakai, 
 T. Vreven, K. Throssell, J. A. Montgomery, Jr., J. E. Peralta, 
 F. Ogliaro, M. J. Bearpark, J. J. Heyd, E. N. Brothers, K. N. Kudin, 
 V. N. Staroverov, T. A. Keith, R. Kobayashi, J. Normand, 
 K. Raghavachari, A. P. Rendell, J. C. Burant, S. S. Iyengar, 
 J. Tomasi, M. Cossi, J. M. Millam, M. Klene, C. Adamo, R. Cammi, 
 J. W. Ochterski, R. L. Martin, K. Morokuma, O. Farkas, 
 J. B. Foresman, and D. J. Fox, Gaussian, Inc., Wallingford CT, 2019.
 
 ******************************************
 Gaussian 16:  ES64L-G16RevC.01  3-Jul-2019
                30-Jul-2020 
 ******************************************
 %NprocShared=4
 Will use up to    4 processors via shared memory.
 %chk=checkpoint.chk
 ---------------------------------------------------------------
 # wB97xD/Gen Freq Opt=(VeryTight,ZMatrix,CalcAll) Int=UltraFine
 ---------------------------------------------------------------
 1/7=1,10=4,18=40,26=4,38=1/1,3;
 2/12=2,17=6,18=5,29=3,40=1/2;
 3/5=7,11=2,25=1,30=1,71=2,74=-58,75=-5,140=1/1,2,3;
 4//1;
 5/5=2,38=5/2;
 8/6=4,10=90,11=11/1;
 11/6=1,8=1,9=11,15=111,16=1/1,2,10;
 10/6=1/2;
 6/7=2,8=2,9=2,10=2,18=1,28=1/1;
 7/10=1,25=1/1,2,3,16;
 1/7=1,10=4,18=40,26=4/3(3);
 2/29=3/2;
 7/8=1,9=1,25=1,44=-1/16;
 99//99;
 2/29=3/2;
 3/5=7,6=1,11=2,25=1,30=1,71=2,74=-58,75=-5,82=7,140=1/1,2,3;
 4/5=5,16=3,69=1/1;
 5/5=2,38=5/2;
 8/6=4,10=90,11=11/1;
 11/6=1,8=1,9=11,15=111,16=1/1,2,10;
 10/6=1/2;
 7/10=1,25=1/1,2,3,16;
 1/7=1,10=4,18=40,26=4/3(-8);
 2/29=3/2;
 6/7=2,8=2,9=2,10=2,18=1,19=2,28=1/1;
 7/8=1,9=1,25=1,44=-1/16;
 99//99;
 ------------------------------------------
 CFC-113 - Cl2FC-CClF2 HARMONIC FREQUENCIES
 ------------------------------------------
 Symbolic Z-matrix:
 Charge =  0 Multiplicity = 1
 C
 C                    1    r2
 Cl                   1    r3       2    a3
 F                    1    r4       2    a4       3    d4       0
 F                    1    r5       2    a5       3    d5       0
 Cl                   2    r6       1    a6       3    d6       0
 Cl                   2    r7       1    a7       3    d7       0
 F                    2    r8       1    a8       3    d8       0
       Variables:
  r2                    1.5462                   
  r3                    1.7881                   
  a3                  114.25                     
  r4                    1.3641                   
  a4                  110.37                     
  d4                  238.15                     
  r5                    1.3641                   
  a5                  110.37                     
  d5                  121.85                     
  r6                    1.796                    
  a6                  112.41                     
  d6                   61.45                     
  r7                    1.796                    
  a7                  112.41                     
  d7                  298.55                     
  r8                    1.3679                   
  a8                  109.28                     
  d8                  180.                       
 

 GradGradGradGradGradGradGradGradGradGradGradGradGradGradGradGradGradGrad
 Berny optimization.
 Initialization pass.
                       ----------------------------
                       !    Initial Parameters    !
                       ! (Angstroms and Degrees)  !
 ----------------------                            ----------------------
 !      Name          Value   Derivative information (Atomic Units)     !
 ------------------------------------------------------------------------
 !       r2          1.5462   calculate D2E/DX2 analytically            !
 !       r3          1.7881   calculate D2E/DX2 analytically            !
 !       a3        114.25     calculate D2E/DX2 analytically            !
 !       r4          1.3641   calculate D2E/DX2 analytically            !
 !       a4        110.37     calculate D2E/DX2 analytically            !
 !       d4        238.15     calculate D2E/DX2 analytically            !
 !       r5          1.3641   calculate D2E/DX2 analytically            !
 !       a5        110.37     calculate D2E/DX2 analytically            !
 !       d5        121.85     calculate D2E/DX2 analytically            !
 !       r6          1.796    calculate D2E/DX2 analytically            !
 !       a6        112.41     calculate D2E/DX2 analytically            !
 !       d6         61.45     calculate D2E/DX2 analytically            !
 !       r7          1.796    calculate D2E/DX2 analytically            !
 !       a7        112.41     calculate D2E/DX2 analytically            !
 !       d7        298.55     calculate D2E/DX2 analytically            !
 !       r8          1.3679   calculate D2E/DX2 analytically            !
 !       a8        109.28     calculate D2E/DX2 analytically            !
 !       d8        180.0      calculate D2E/DX2 analytically            !
 ------------------------------------------------------------------------
 Trust Radius=3.00D-01 FncErr=1.00D-07 GrdErr=1.00D-06 EigMax=2.50D+02 EigMin=1.00D-04
 Number of steps in this run=     28 maximum allowed number of steps=    100.
 GradGradGradGradGradGradGradGradGradGradGradGradGradGradGradGradGradGrad

 ---------------------------------------------------------------------------------------------------
                            Z-MATRIX (ANGSTROMS AND DEGREES)
   CD    Cent   Atom    N1       Length/X        N2       Alpha/Y        N3        Beta/Z          J
 ---------------------------------------------------------------------------------------------------
      1      1  C 
      2      2  C        1   1.546200(     1)
      3      3  Cl       1   1.788100(     2)      2  114.250(     8)
      4      4  F        1   1.364100(     3)      2  110.370(     9)      3  238.150(    14)      0
      5      5  F        1   1.364100(     4)      2  110.370(    10)      3  121.850(    15)      0
      6      6  Cl       2   1.796000(     5)      1  112.410(    11)      3   61.450(    16)      0
      7      7  Cl       2   1.796000(     6)      1  112.410(    12)      3  298.550(    17)      0
      8      8  F        2   1.367900(     7)      1  109.280(    13)      3  180.000(    18)      0
 ---------------------------------------------------------------------------------------------------
                         Z-Matrix orientation:                         
 ---------------------------------------------------------------------
 Center     Atomic      Atomic             Coordinates (Angstroms)
 Number     Number       Type             X           Y           Z
 ---------------------------------------------------------------------
      1          6           0        0.000000    0.000000    0.000000
      2          6           0        0.000000    0.000000    1.546200
      3         17           0        1.630322    0.000000   -0.734406
      4          9           0       -0.674817    1.086250   -0.474818
      5          9           0       -0.674817   -1.086250   -0.474818
      6         17           0        0.793531    1.458465    2.230892
      7         17           0        0.793531   -1.458465    2.230892
      8          9           0       -1.291183    0.000000    1.997860
 ---------------------------------------------------------------------
                    Distance matrix (angstroms):
                    1          2          3          4          5
     1  C    0.000000
     2  C    1.546200   0.000000
     3  Cl   1.788100   2.803411   0.000000
     4  F    1.364100   2.391616   2.561443   0.000000
     5  F    1.364100   2.391616   2.561443   2.172500   0.000000
     6  Cl   2.780952   1.796000   3.408861   3.100880   3.994057
     7  Cl   2.780952   1.796000   3.408861   3.994057   3.100880
     8  F    2.378781   1.367900   4.000059   2.770195   2.770195
                    6          7          8
     6  Cl   0.000000
     7  Cl   2.916931   0.000000
     8  F    2.554889   2.554889   0.000000
 Stoichiometry    C2Cl3F3
 Framework group  CS[SG(C2ClF),X(Cl2F2)]
 Deg. of freedom    11
 Full point group                 CS      NOp   2
 Largest Abelian subgroup         CS      NOp   2
 Largest concise Abelian subgroup CS      NOp   2
                         Standard orientation:                         
 ---------------------------------------------------------------------
 Center     Atomic      Atomic             Coordinates (Angstroms)
 Number     Number       Type             X           Y           Z
 ---------------------------------------------------------------------
      1          6           0        0.132947    0.965450   -0.000000
      2          6           0       -0.604552   -0.393531    0.000000
      3         17           0        1.916157    0.833310   -0.000000
      4          9           0       -0.233685    1.704646    1.086250
      5          9           0       -0.233685    1.704646   -1.086250
      6         17           0       -0.233685   -1.373813    1.458465
      7         17           0       -0.233685   -1.373813   -1.458465
      8          9           0       -1.954825   -0.174641    0.000000
 ---------------------------------------------------------------------
 Rotational constants (GHZ):           1.4122889           1.0276431           0.9697558
 General basis read from cards:  (5D, 7F)
 There are   129 symmetry adapted cartesian basis functions of A'  symmetry.
 There are    83 symmetry adapted cartesian basis functions of A"  symmetry.
 There are   117 symmetry adapted basis functions of A'  symmetry.
 There are    79 symmetry adapted basis functions of A"  symmetry.
   196 basis functions,   432 primitive gaussians,   212 cartesian basis functions
    45 alpha electrons       45 beta electrons
       nuclear repulsion energy       691.8139435788 Hartrees.
 NAtoms=    8 NActive=    8 NUniq=    6 SFac= 1.78D+00 NAtFMM=   60 NAOKFM=F Big=F
 Integral buffers will be    131072 words long.
 Raffenetti 2 integral format.
 Two-electron integral symmetry is turned on.
 Nuclear repulsion after empirical dispersion term =      691.8110514239 Hartrees.
 One-electron integrals computed using PRISM.
 NBasis=   196 RedAO= T EigKep=  1.71D-04  NBF=   117    79
 NBsUse=   196 1.00D-06 EigRej= -1.00D+00 NBFU=   117    79
 ExpMin= 3.35D-02 ExpMax= 6.35D+04 ExpMxC= 2.17D+03 IAcc=3 IRadAn=         5 AccDes= 0.00D+00
 Harris functional with IExCor= 4639 and IRadAn=       5 diagonalized for initial guess.
 HarFok:  IExCor= 4639 AccDes= 0.00D+00 IRadAn=         5 IDoV= 1 UseB2=F ITyADJ=14
 ICtDFT=  3500011 ScaDFX=  1.000000  1.000000  1.000000  1.000000
 FoFCou: FMM=F IPFlag=           0 FMFlag=      100000 FMFlg1=           0
         NFxFlg=           0 DoJE=T BraDBF=F KetDBF=T FulRan=T
         wScrn=  0.000000 ICntrl=       500 IOpCl=  0 I1Cent=   200000004 NGrid=           0
         NMat0=    1 NMatS0=      1 NMatT0=    0 NMatD0=    1 NMtDS0=    0 NMtDT0=    0
 Petite list used in FoFCou.
 Initial guess orbital symmetries:
       Occupied  (A') (A") (A') (A') (A") (A') (A') (A') (A') (A")
                 (A') (A') (A") (A') (A') (A") (A") (A') (A') (A")
                 (A') (A') (A") (A') (A') (A") (A') (A') (A') (A")
                 (A') (A") (A') (A') (A") (A") (A') (A") (A') (A')
                 (A") (A') (A') (A") (A")
       Virtual   (A') (A') (A') (A") (A') (A") (A') (A') (A") (A')
                 (A") (A') (A') (A") (A") (A') (A') (A") (A') (A')
                 (A') (A') (A") (A') (A") (A") (A') (A") (A') (A")
                 (A') (A") (A') (A') (A') (A') (A') (A") (A') (A")
                 (A') (A") (A') (A") (A') (A") (A') (A") (A") (A')
                 (A') (A') (A") (A') (A') (A') (A") (A') (A") (A')
                 (A') (A") (A") (A') (A') (A') (A') (A") (A") (A')
                 (A") (A') (A') (A") (A") (A") (A') (A') (A') (A')
                 (A") (A') (A") (A") (A') (A') (A") (A') (A") (A")
                 (A') (A") (A') (A') (A') (A") (A') (A") (A") (A')
                 (A") (A') (A") (A') (A") (A') (A") (A') (A') (A')
                 (A") (A') (A') (A") (A') (A') (A") (A") (A') (A')
                 (A') (A") (A') (A') (A") (A') (A") (A') (A") (A')
                 (A') (A") (A') (A") (A") (A") (A') (A') (A") (A')
                 (A") (A') (A') (A") (A') (A") (A') (A') (A') (A')
                 (A")
 The electronic state of the initial guess is 1-A'.
 Requested convergence on RMS density matrix=1.00D-08 within 128 cycles.
 Requested convergence on MAX density matrix=1.00D-06.
 Requested convergence on             energy=1.00D-06.
 No special actions if energy rises.
 SCF Done:  E(RwB97XD) =  -1756.15485833     A.U. after   14 cycles
            NFock= 14  Conv=0.46D-08     -V/T= 2.0014
 DoSCS=F DFT=T ScalE2(SS,OS)=  1.000000  1.000000
 Range of M.O.s used for correlation:     1   196
 NBasis=   196 NAE=    45 NBE=    45 NFC=     0 NFV=     0
 NROrb=    196 NOA=    45 NOB=    45 NVA=   151 NVB=   151

 **** Warning!!: The largest alpha MO coefficient is  0.17875937D+02

 Symmetrizing basis deriv contribution to polar:
 IMax=3 JMax=2 DiffMx= 0.00D+00
 G2DrvN: will do     9 centers at a time, making    1 passes.
 Calling FoFCou, ICntrl=  3107 FMM=F I1Cent=   0 AccDes= 0.00D+00.
 End of G2Drv F.D. properties file   721 does not exist.
 End of G2Drv F.D. properties file   722 does not exist.
 End of G2Drv F.D. properties file   788 does not exist.
          IDoAtm=11111111
          Differentiating once with respect to electric field.
                with respect to dipole field.
          Differentiating once with respect to nuclear coordinates.
 CalDSu exits because no D1Ps are significant.
          There are    21 degrees of freedom in the 1st order CPHF.  IDoFFX=4 NUNeed=    21.
     21 vectors produced by pass  0 Test12= 3.24D-14 4.76D-09 XBig12= 3.21D+01 1.86D+00.
 AX will form    21 AO Fock derivatives at one time.
     21 vectors produced by pass  1 Test12= 3.24D-14 4.76D-09 XBig12= 4.36D+00 4.20D-01.
     21 vectors produced by pass  2 Test12= 3.24D-14 4.76D-09 XBig12= 3.92D-01 1.04D-01.
     21 vectors produced by pass  3 Test12= 3.24D-14 4.76D-09 XBig12= 1.90D-02 1.93D-02.
     21 vectors produced by pass  4 Test12= 3.24D-14 4.76D-09 XBig12= 3.37D-04 2.93D-03.
     21 vectors produced by pass  5 Test12= 3.24D-14 4.76D-09 XBig12= 3.91D-06 3.52D-04.
     21 vectors produced by pass  6 Test12= 3.24D-14 4.76D-09 XBig12= 3.63D-08 2.35D-05.
     19 vectors produced by pass  7 Test12= 3.24D-14 4.76D-09 XBig12= 3.17D-10 2.27D-06.
      5 vectors produced by pass  8 Test12= 3.24D-14 4.76D-09 XBig12= 2.57D-12 1.63D-07.
      3 vectors produced by pass  9 Test12= 3.24D-14 4.76D-09 XBig12= 1.69D-14 1.98D-08.
 InvSVY:  IOpt=1 It=  1 EMax= 2.66D-15
 Solved reduced A of dimension   174 with    21 vectors.
 Isotropic polarizability for W=    0.000000       70.49 Bohr**3.
 End of Minotr F.D. properties file   721 does not exist.
 End of Minotr F.D. properties file   722 does not exist.
 End of Minotr F.D. properties file   788 does not exist.

 **********************************************************************

            Population analysis using the SCF Density.

 **********************************************************************

 Orbital symmetries:
       Occupied  (A") (A') (A') (A') (A') (A") (A') (A') (A") (A')
                 (A') (A") (A') (A') (A") (A') (A') (A") (A') (A")
                 (A') (A') (A") (A') (A') (A") (A') (A') (A') (A")
                 (A') (A") (A') (A') (A") (A") (A') (A") (A') (A')
                 (A") (A') (A') (A") (A")
       Virtual   (A') (A") (A') (A') (A') (A') (A") (A') (A") (A')
                 (A") (A') (A') (A') (A') (A") (A") (A") (A') (A")
                 (A') (A') (A') (A') (A') (A") (A") (A') (A") (A')
                 (A") (A') (A') (A") (A') (A') (A') (A') (A") (A")
                 (A') (A") (A') (A") (A') (A') (A") (A") (A') (A")
                 (A') (A') (A") (A') (A') (A") (A') (A') (A") (A')
                 (A") (A') (A') (A") (A') (A') (A') (A") (A") (A')
                 (A") (A') (A') (A") (A") (A") (A') (A') (A') (A')
                 (A") (A') (A") (A') (A") (A') (A") (A") (A') (A")
                 (A') (A") (A') (A') (A') (A") (A') (A") (A") (A')
                 (A") (A') (A') (A") (A") (A') (A") (A') (A') (A')
                 (A") (A') (A') (A") (A') (A') (A") (A") (A') (A')
                 (A') (A') (A") (A") (A') (A") (A') (A') (A") (A')
                 (A') (A") (A') (A") (A") (A") (A') (A') (A") (A')
                 (A") (A') (A') (A") (A') (A") (A') (A') (A') (A')
                 (A")
 The electronic state is 1-A'.
 Alpha  occ. eigenvalues -- -101.72548-101.72547-101.72441 -24.87619 -24.87456
 Alpha  occ. eigenvalues --  -24.87454 -10.57410 -10.54863  -9.62484  -9.62482
 Alpha  occ. eigenvalues --   -9.62410  -7.37278  -7.37277  -7.37185  -7.36123
 Alpha  occ. eigenvalues --   -7.36123  -7.36110  -7.36110  -7.36055  -7.36046
 Alpha  occ. eigenvalues --   -1.42888  -1.39382  -1.36248  -1.04956  -0.99672
 Alpha  occ. eigenvalues --   -0.96662  -0.87334  -0.77225  -0.71327  -0.70566
 Alpha  occ. eigenvalues --   -0.67647  -0.63684  -0.63556  -0.58796  -0.56980
 Alpha  occ. eigenvalues --   -0.54721  -0.54394  -0.51799  -0.50496  -0.46876
 Alpha  occ. eigenvalues --   -0.45255  -0.45066  -0.43569  -0.42844  -0.42059
 Alpha virt. eigenvalues --    0.01350   0.03356   0.03995   0.05371   0.07191
 Alpha virt. eigenvalues --    0.07954   0.08055   0.09683   0.09985   0.10062
 Alpha virt. eigenvalues --    0.11369   0.11804   0.13501   0.14733   0.14941
 Alpha virt. eigenvalues --    0.15155   0.15603   0.16542   0.16872   0.17523
 Alpha virt. eigenvalues --    0.18139   0.19042   0.20870   0.22657   0.24496
 Alpha virt. eigenvalues --    0.25282   0.26046   0.26606   0.26968   0.27230
 Alpha virt. eigenvalues --    0.27304   0.27800   0.28965   0.29336   0.30323
 Alpha virt. eigenvalues --    0.31453   0.33774   0.34161   0.34472   0.34706
 Alpha virt. eigenvalues --    0.35939   0.36594   0.36965   0.37688   0.38702
 Alpha virt. eigenvalues --    0.39889   0.40118   0.41130   0.42811   0.42924
 Alpha virt. eigenvalues --    0.43455   0.44566   0.45857   0.48102   0.51585
 Alpha virt. eigenvalues --    0.51917   0.51954   0.55389   0.55449   0.56880
 Alpha virt. eigenvalues --    0.57248   0.58824   0.60431   0.62075   0.70672
 Alpha virt. eigenvalues --    0.71229   0.74683   0.74888   0.75872   0.76677
 Alpha virt. eigenvalues --    0.77940   0.79981   0.80276   0.81012   0.84112
 Alpha virt. eigenvalues --    0.84552   0.84988   0.87220   0.89212   0.90587
 Alpha virt. eigenvalues --    0.90656   0.93071   0.93162   0.96216   0.96607
 Alpha virt. eigenvalues --    0.98058   0.99310   1.00176   1.00319   1.01618
 Alpha virt. eigenvalues --    1.02400   1.02408   1.03400   1.04341   1.05862
 Alpha virt. eigenvalues --    1.07652   1.07732   1.10258   1.12552   1.13224
 Alpha virt. eigenvalues --    1.15489   1.17201   1.19324   1.19769   1.21157
 Alpha virt. eigenvalues --    1.22518   1.32533   1.33700   1.34836   1.39428
 Alpha virt. eigenvalues --    1.50402   1.52006   1.55843   1.57941   1.65241
 Alpha virt. eigenvalues --    1.70418   1.74919   1.76718   1.83244   1.91575
 Alpha virt. eigenvalues --    1.93644   1.98928   2.00292   2.02292   2.02824
 Alpha virt. eigenvalues --    2.06330   2.07614   2.11957   2.17686   2.22161
 Alpha virt. eigenvalues --    2.29996   2.33442   2.55399   2.77602   2.82841
 Alpha virt. eigenvalues --    2.85092   2.85410   2.89993   2.90188   2.91956
 Alpha virt. eigenvalues --    2.95159   2.97380   2.98178   2.99713   3.06089
 Alpha virt. eigenvalues --    3.08451   3.11649   3.23080   3.56472   3.63754
 Alpha virt. eigenvalues --    3.66732
          Condensed to atoms (all electrons):
               1          2          3          4          5          6
     1  C    5.730205  -0.504118   0.261511  -0.385516  -0.385516  -0.292885
     2  C   -0.504118   6.388165  -0.281015  -0.096243  -0.096243   0.168382
     3  Cl   0.261511  -0.281015  17.683917  -0.148169  -0.148169   0.026592
     4  F   -0.385516  -0.096243  -0.148169  10.421293  -0.179047  -0.029201
     5  F   -0.385516  -0.096243  -0.148169  -0.179047  10.421293   0.029809
     6  Cl  -0.292885   0.168382   0.026592  -0.029201   0.029809  17.753883
     7  Cl  -0.292885   0.168382   0.026592   0.029809  -0.029201  -0.255206
     8  F   -0.039014  -0.561776   0.029724  -0.026963  -0.026963  -0.120223
               7          8
     1  C   -0.292885  -0.039014
     2  C    0.168382  -0.561776
     3  Cl   0.026592   0.029724
     4  F    0.029809  -0.026963
     5  F   -0.029201  -0.026963
     6  Cl  -0.255206  -0.120223
     7  Cl  17.753883  -0.120223
     8  F   -0.120223  10.402905
 Mulliken charges:
               1
     1  C    1.908218
     2  C    0.814465
     3  Cl  -0.450986
     4  F   -0.585964
     5  F   -0.585964
     6  Cl  -0.281151
     7  Cl  -0.281151
     8  F   -0.537468
 Sum of Mulliken charges =  -0.00000
 Mulliken charges with hydrogens summed into heavy atoms:
               1
     1  C    1.908218
     2  C    0.814465
     3  Cl  -0.450986
     4  F   -0.585964
     5  F   -0.585964
     6  Cl  -0.281151
     7  Cl  -0.281151
     8  F   -0.537468
 APT charges:
               1
     1  C    1.270721
     2  C    1.076801
     3  Cl  -0.247913
     4  F   -0.520685
     5  F   -0.520685
     6  Cl  -0.262183
     7  Cl  -0.262183
     8  F   -0.533873
 Sum of APT charges =  -0.00000
 APT charges with hydrogens summed into heavy atoms:
               1
     1  C    1.270721
     2  C    1.076801
     3  Cl  -0.247913
     4  F   -0.520685
     5  F   -0.520685
     6  Cl  -0.262183
     7  Cl  -0.262183
     8  F   -0.533873
 Electronic spatial extent (au):  <R**2>=           1322.9321
 Charge=              0.0000 electrons
 Dipole moment (field-independent basis, Debye):
    X=              0.6526    Y=             -0.6697    Z=              0.0000  Tot=              0.9351
 Quadrupole moment (field-independent basis, Debye-Ang):
   XX=            -63.8088   YY=            -64.4826   ZZ=            -63.2249
   XY=              0.1805   XZ=              0.0000   YZ=             -0.0000
 Traceless Quadrupole moment (field-independent basis, Debye-Ang):
   XX=              0.0300   YY=             -0.6438   ZZ=              0.6138
   XY=              0.1805   XZ=              0.0000   YZ=             -0.0000
 Octapole moment (field-independent basis, Debye-Ang**2):
  XXX=             -0.3403  YYY=              9.2624  ZZZ=              0.0000  XYY=             -2.9523
  XXY=              6.9116  XXZ=              0.0000  XZZ=             -3.0749  YZZ=             -3.5500
  YYZ=             -0.0000  XYZ=             -0.0000
 Hexadecapole moment (field-independent basis, Debye-Ang**3):
 XXXX=           -442.5917 YYYY=           -604.3457 ZZZZ=           -426.9016 XXXY=            -78.5883
 XXXZ=             -0.0000 YYYX=            -84.9734 YYYZ=             -0.0000 ZZZX=              0.0000
 ZZZY=             -0.0000 XXYY=           -181.0870 XXZZ=           -156.5836 YYZZ=           -159.8630
 XXYZ=             -0.0000 YYXZ=              0.0000 ZZXY=            -29.8088
 N-N= 6.918110514239D+02 E-N=-5.558136736499D+03  KE= 1.753684974769D+03
 Symmetry A'   KE= 1.137456023796D+03
 Symmetry A"   KE= 6.162289509733D+02
  Exact polarizability:      69.497       1.761      68.028       0.000       0.000      73.942
 Approx polarizability:      81.470      -3.777      75.412       0.000      -0.000      86.169
 Calling FoFJK, ICntrl=    100127 FMM=F ISym2X=1 I1Cent= 0 IOpClX= 0 NMat=1 NMatS=1 NMatT=0.
 ***** Axes restored to original set *****
 -------------------------------------------------------------------
 Center     Atomic                   Forces (Hartrees/Bohr)
 Number     Number              X              Y              Z
 -------------------------------------------------------------------
      1        6          -0.013450165    0.000000000   -0.035147250
      2        6          -0.006480954    0.000000000    0.030299298
      3       17          -0.009101897    0.000000000    0.008580751
      4        9           0.011193280   -0.014799138    0.015269984
      5        9           0.011193280    0.014799138    0.015269984
      6       17          -0.004960407   -0.006613734   -0.009742649
      7       17          -0.004960407    0.006613734   -0.009742649
      8        9           0.016567270    0.000000000   -0.014787468
 -------------------------------------------------------------------
 Cartesian Forces:  Max     0.035147250 RMS     0.013704302
 -----------------------------------------------------------------------------------------------
                       Internal Coordinate Forces (Hartree/Bohr or radian)
  Cent   Atom   N1       Length/X         N2         Alpha/Y        N3         Beta/Z          J
 -----------------------------------------------------------------------------------------------
      1  C 
      2  C        1  -0.003973(     1)
      3  Cl       1  -0.011823(     2)      2  -0.013804(     8)
      4  F        1  -0.022637(     3)      2  -0.020322(     9)      3   0.004104(    14)     0
      5  F        1  -0.022637(     4)      2  -0.020322(    10)      3  -0.004104(    15)     0
      6  Cl       2  -0.011277(     5)      1  -0.019985(    11)      3   0.003754(    16)     0
      7  Cl       2  -0.011277(     6)      1  -0.019985(    12)      3  -0.003754(    17)     0
      8  F        2  -0.020521(     7)      1  -0.021941(    13)      3  -0.000000(    18)     0
 -----------------------------------------------------------------------------------------------
 Internal  Forces:  Max     0.022637223 RMS     0.015301456

 GradGradGradGradGradGradGradGradGradGradGradGradGradGradGradGradGradGrad
 Berny optimization.
 Search for a local minimum.
 Step number   1 out of a maximum of   28
 All quantities printed in internal units (Hartrees-Bohrs-Radians)
 Second derivative matrix not updated -- analytic derivatives used.
 The second derivative matrix:
                          r2        r3        a3        r4        a4
           r2           0.26739
           r3           0.01353   0.20457
           a3           0.04375  -0.00935   0.42177
           r4           0.01726   0.03833  -0.03723   0.33746
           a4           0.03437  -0.03809   0.13477  -0.01047   0.42563
           d4          -0.00071  -0.04746   0.08664   0.01261  -0.02037
           r5           0.01726   0.03833  -0.03723   0.05123  -0.03929
           a5           0.03437  -0.03809   0.13477  -0.03929   0.14241
           d5           0.00071   0.04746  -0.08664  -0.06634   0.10467
           r6           0.01201   0.00288   0.00516   0.00227   0.00143
           a6           0.03763   0.00542   0.02762   0.00012   0.01073
           d6           0.00249   0.00022   0.01897   0.00478  -0.00946
           r7           0.01201   0.00288   0.00516   0.00183   0.01133
           a7           0.03763   0.00542   0.02762   0.01307   0.02762
           d7          -0.00249  -0.00022  -0.01897   0.00060  -0.00100
           r8           0.01596   0.00192   0.01199   0.00335  -0.00469
           a8           0.02927   0.01183   0.02694  -0.00421  -0.00210
           d8          -0.00000   0.00000  -0.00000  -0.00717   0.00261
                          d4        r5        a5        d5        r6
           d4           0.42477
           r5           0.06634   0.33746
           a5          -0.10467  -0.01047   0.42563
           d5          -0.24522  -0.01261   0.02037   0.42477
           r6           0.00220   0.00183   0.01133   0.00014   0.19610
           a6          -0.00867   0.01307   0.02762   0.00124  -0.00822
           d6           0.00489  -0.00060   0.00100   0.00360  -0.00068
           r7          -0.00014   0.00227   0.00143  -0.00220   0.02994
           a7          -0.00124   0.00012   0.01073   0.00867  -0.03703
           d7           0.00360  -0.00478   0.00946   0.00489  -0.04732
           r8          -0.00857   0.00335  -0.00469   0.00857   0.03821
           a8           0.00377  -0.00421  -0.00210  -0.00377  -0.03285
           d8           0.00380   0.00717  -0.00261   0.00380   0.05027
                          a6        d6        r7        a7        d7
           a6           0.40949
           d6           0.00526   0.38104
           r7          -0.03703   0.04732   0.19610
           a7           0.13474  -0.09337  -0.00822   0.40949
           d7           0.09337  -0.16814   0.00068  -0.00526   0.38104
           r8          -0.03338  -0.05520   0.03821  -0.03338   0.05520
           a8           0.11837   0.09232  -0.03285   0.11837  -0.09232
           d8          -0.08564  -0.19272  -0.05027   0.08564  -0.19272
                          r8        a8        d8
           r8           0.33057
           a8          -0.00417   0.40247
           d8           0.00000  -0.00000   0.39689
 ITU=  0
     Eigenvalues ---    0.01551   0.10613   0.12534   0.13101   0.15806
     Eigenvalues ---    0.22535   0.24239   0.24506   0.25961   0.31048
     Eigenvalues ---    0.33349   0.35608   0.39612   0.63651   0.64321
     Eigenvalues ---    0.66639   0.73236   0.78956
 RFO step:  Lambda=-9.41375938D-03 EMin= 1.55070422D-02
 Linear search not attempted -- first point.
 Variable       Old X    -DE/DX   Delta X   Delta X   Delta X     New X
                                 (Linear)    (Quad)   (Total)
    r2        2.92189  -0.00397   0.00000   0.02717   0.02717   2.94906
    r3        3.37902  -0.01182   0.00000  -0.04132  -0.04132   3.33770
    a3        1.99404  -0.01380   0.00000  -0.01602  -0.01602   1.97801
    r4        2.57778  -0.02264   0.00000  -0.05999  -0.05999   2.51779
    a4        1.92632  -0.02032   0.00000  -0.03746  -0.03746   1.88886
    d4        4.15650   0.00410   0.00000   0.00469   0.00469   4.16119
    r5        2.57778  -0.02264   0.00000  -0.05999  -0.05999   2.51779
    a5        1.92632  -0.02032   0.00000  -0.03746  -0.03746   1.88886
    d5        2.12668  -0.00410   0.00000  -0.00469  -0.00469   2.12199
    r6        3.39395  -0.01128   0.00000  -0.05174  -0.05174   3.34221
    a6        1.96192  -0.01998   0.00000  -0.02696  -0.02696   1.93496
    d6        1.07250   0.00375   0.00000   0.01075   0.01075   1.08325
    r7        3.39395  -0.01128   0.00000  -0.05174  -0.05174   3.34221
    a7        1.96192  -0.01998   0.00000  -0.02696  -0.02696   1.93496
    d7        5.21068  -0.00375   0.00000  -0.01075  -0.01075   5.19993
    r8        2.58496  -0.02052   0.00000  -0.05127  -0.05127   2.53369
    a8        1.90730  -0.02194   0.00000  -0.05276  -0.05276   1.85454
    d8        3.14159  -0.00000   0.00000  -0.00000  -0.00000   3.14159
         Item               Value     Threshold  Converged?
 Maximum Force            0.022637     0.000002     NO 
 RMS     Force            0.015301     0.000001     NO 
 Maximum Displacement     0.059987     0.000006     NO 
 RMS     Displacement     0.037418     0.000004     NO 
 Predicted change in Energy=-4.825502D-03
 GradGradGradGradGradGradGradGradGradGradGradGradGradGradGradGradGradGrad

 ---------------------------------------------------------------------------------------------------
                            Z-MATRIX (ANGSTROMS AND DEGREES)
   CD    Cent   Atom    N1       Length/X        N2       Alpha/Y        N3        Beta/Z          J
 ---------------------------------------------------------------------------------------------------
      1      1  C 
      2      2  C        1   1.560575(     1)
      3      3  Cl       1   1.766233(     2)      2  113.332(     8)
      4      4  F        1   1.332356(     3)      2  108.223(     9)      3  238.419(    14)      0
      5      5  F        1   1.332356(     4)      2  108.223(    10)      3  121.581(    15)      0
      6      6  Cl       2   1.768619(     5)      1  110.865(    11)      3   62.066(    16)      0
      7      7  Cl       2   1.768619(     6)      1  110.865(    12)      3  297.934(    17)      0
      8      8  F        2   1.340769(     7)      1  106.257(    13)      3  180.000(    18)      0
 ---------------------------------------------------------------------------------------------------
                         Z-Matrix orientation:                         
 ---------------------------------------------------------------------
 Center     Atomic      Atomic             Coordinates (Angstroms)
 Number     Number       Type             X           Y           Z
 ---------------------------------------------------------------------
      1          6           0        0.000000    0.000000    0.000000
      2          6           0        0.000000    0.000000    1.560575
      3         17           0        1.621801    0.000000   -0.699528
      4          9           0       -0.662767    1.078104   -0.416659
      5          9           0       -0.662767   -1.078104   -0.416659
      6         17           0        0.774186    1.460081    2.190506
      7         17           0        0.774186   -1.460081    2.190506
      8          9           0       -1.287158    0.000000    1.935926
 ---------------------------------------------------------------------
                    Distance matrix (angstroms):
                    1          2          3          4          5
     1  C    0.000000
     2  C    1.560575   0.000000
     3  Cl   1.766233   2.781781   0.000000
     4  F    1.332356   2.347557   2.541963   0.000000
     5  F    1.332356   2.347557   2.541963   2.156208   0.000000
     6  Cl   2.743997   1.768619   3.347027   3.001341   3.912100
     7  Cl   2.743997   1.768619   3.347027   3.912100   3.001341
     8  F    2.324776   1.340769   3.925259   2.662110   2.662110
                    6          7          8
     6  Cl   0.000000
     7  Cl   2.920163   0.000000
     8  F    2.538855   2.538855   0.000000
 Stoichiometry    C2Cl3F3
 Framework group  CS[SG(C2ClF),X(Cl2F2)]
 Deg. of freedom    11
 Full point group                 CS      NOp   2
 Largest Abelian subgroup         CS      NOp   2
 Largest concise Abelian subgroup CS      NOp   2
                         Standard orientation:                         
 ---------------------------------------------------------------------
 Center     Atomic      Atomic             Coordinates (Angstroms)
 Number     Number       Type             X           Y           Z
 ---------------------------------------------------------------------
      1          6           0        0.143489    0.959626    0.000000
      2          6           0       -0.609794   -0.407108   -0.000000
      3         17           0        1.901502    0.789429    0.000000
      4          9           0       -0.235835    1.644446    1.078104
      5          9           0       -0.235835    1.644446   -1.078104
      6         17           0       -0.235835   -1.332490    1.460081
      7         17           0       -0.235835   -1.332490   -1.460081
      8          9           0       -1.918251   -0.114531   -0.000000
 ---------------------------------------------------------------------
 Rotational constants (GHZ):           1.4278723           1.0774496           1.0074690
 Basis read from rwf:  (5D, 7F)
 There are   129 symmetry adapted cartesian basis functions of A'  symmetry.
 There are    83 symmetry adapted cartesian basis functions of A"  symmetry.
 There are   117 symmetry adapted basis functions of A'  symmetry.
 There are    79 symmetry adapted basis functions of A"  symmetry.
   196 basis functions,   432 primitive gaussians,   212 cartesian basis functions
    45 alpha electrons       45 beta electrons
       nuclear repulsion energy       702.6824669004 Hartrees.
 NAtoms=    8 NActive=    8 NUniq=    6 SFac= 1.78D+00 NAtFMM=   60 NAOKFM=F Big=F
 Integral buffers will be    131072 words long.
 Raffenetti 2 integral format.
 Two-electron integral symmetry is turned on.
 Nuclear repulsion after empirical dispersion term =      702.6797125153 Hartrees.
 One-electron integrals computed using PRISM.
 NBasis=   196 RedAO= T EigKep=  1.65D-04  NBF=   117    79
 NBsUse=   196 1.00D-06 EigRej= -1.00D+00 NBFU=   117    79
 Initial guess from the checkpoint file:  "checkpoint.chk"
 B after Tr=     0.000000   -0.000000   -0.000000
         Rot=    0.999987    0.000000    0.000000    0.005098 Ang=   0.58 deg.
 Initial guess orbital symmetries:
       Occupied  (A") (A') (A') (A') (A') (A") (A') (A') (A") (A')
                 (A') (A") (A') (A') (A") (A') (A') (A") (A') (A")
                 (A') (A') (A") (A') (A') (A") (A') (A') (A') (A")
                 (A') (A") (A') (A') (A") (A") (A') (A") (A') (A')
                 (A") (A') (A') (A") (A")
       Virtual   (A') (A") (A') (A') (A') (A') (A") (A') (A") (A')
                 (A") (A') (A') (A') (A') (A") (A") (A") (A') (A")
                 (A') (A') (A') (A') (A') (A") (A") (A') (A") (A')
                 (A") (A') (A') (A") (A') (A') (A') (A') (A") (A")
                 (A') (A") (A') (A") (A') (A') (A") (A") (A') (A")
                 (A') (A') (A") (A') (A') (A") (A') (A') (A") (A')
                 (A") (A') (A') (A") (A') (A') (A') (A") (A") (A')
                 (A") (A') (A') (A") (A") (A") (A') (A') (A') (A')
                 (A") (A') (A") (A') (A") (A') (A") (A") (A') (A")
                 (A') (A") (A') (A') (A') (A") (A') (A") (A") (A')
                 (A") (A') (A') (A") (A") (A') (A") (A') (A') (A')
                 (A") (A') (A') (A") (A') (A') (A") (A") (A') (A')
                 (A') (A') (A") (A") (A') (A") (A') (A') (A") (A')
                 (A') (A") (A') (A") (A") (A") (A') (A') (A") (A')
                 (A") (A') (A') (A") (A') (A") (A') (A') (A') (A')
                 (A")
 ExpMin= 3.35D-02 ExpMax= 6.35D+04 ExpMxC= 2.17D+03 IAcc=3 IRadAn=         5 AccDes= 0.00D+00
 Harris functional with IExCor= 4639 and IRadAn=       5 diagonalized for initial guess.
 HarFok:  IExCor= 4639 AccDes= 0.00D+00 IRadAn=         5 IDoV= 1 UseB2=F ITyADJ=14
 ICtDFT=  3500011 ScaDFX=  1.000000  1.000000  1.000000  1.000000
 FoFCou: FMM=F IPFlag=           0 FMFlag=      100000 FMFlg1=           0
         NFxFlg=           0 DoJE=T BraDBF=F KetDBF=T FulRan=T
         wScrn=  0.000000 ICntrl=       500 IOpCl=  0 I1Cent=   200000004 NGrid=           0
         NMat0=    1 NMatS0=      1 NMatT0=    0 NMatD0=    1 NMtDS0=    0 NMtDT0=    0
 Petite list used in FoFCou.
 Requested convergence on RMS density matrix=1.00D-08 within 128 cycles.
 Requested convergence on MAX density matrix=1.00D-06.
 Requested convergence on             energy=1.00D-06.
 No special actions if energy rises.
 SCF Done:  E(RwB97XD) =  -1756.15944975     A.U. after   11 cycles
            NFock= 11  Conv=0.67D-08     -V/T= 2.0012
 DoSCS=F DFT=T ScalE2(SS,OS)=  1.000000  1.000000
 Range of M.O.s used for correlation:     1   196
 NBasis=   196 NAE=    45 NBE=    45 NFC=     0 NFV=     0
 NROrb=    196 NOA=    45 NOB=    45 NVA=   151 NVB=   151

 **** Warning!!: The largest alpha MO coefficient is  0.20985866D+02

 Symmetrizing basis deriv contribution to polar:
 IMax=3 JMax=2 DiffMx= 0.00D+00
 G2DrvN: will do     9 centers at a time, making    1 passes.
 Calling FoFCou, ICntrl=  3107 FMM=F I1Cent=   0 AccDes= 0.00D+00.
 End of G2Drv F.D. properties file   721 does not exist.
 End of G2Drv F.D. properties file   722 does not exist.
 End of G2Drv F.D. properties file   788 does not exist.
          IDoAtm=11111111
          Differentiating once with respect to electric field.
                with respect to dipole field.
          Differentiating once with respect to nuclear coordinates.
 CalDSu exits because no D1Ps are significant.
          There are    21 degrees of freedom in the 1st order CPHF.  IDoFFX=4 NUNeed=    21.
     21 vectors produced by pass  0 Test12= 3.24D-14 4.76D-09 XBig12= 3.11D+01 1.91D+00.
 AX will form    21 AO Fock derivatives at one time.
     21 vectors produced by pass  1 Test12= 3.24D-14 4.76D-09 XBig12= 4.17D+00 3.98D-01.
     21 vectors produced by pass  2 Test12= 3.24D-14 4.76D-09 XBig12= 3.32D-01 8.39D-02.
     21 vectors produced by pass  3 Test12= 3.24D-14 4.76D-09 XBig12= 2.66D-02 2.15D-02.
     21 vectors produced by pass  4 Test12= 3.24D-14 4.76D-09 XBig12= 3.51D-04 3.60D-03.
     21 vectors produced by pass  5 Test12= 3.24D-14 4.76D-09 XBig12= 3.80D-06 3.31D-04.
     21 vectors produced by pass  6 Test12= 3.24D-14 4.76D-09 XBig12= 4.13D-08 3.39D-05.
     17 vectors produced by pass  7 Test12= 3.24D-14 4.76D-09 XBig12= 3.43D-10 2.71D-06.
      3 vectors produced by pass  8 Test12= 3.24D-14 4.76D-09 XBig12= 2.42D-12 1.86D-07.
      3 vectors produced by pass  9 Test12= 3.24D-14 4.76D-09 XBig12= 1.54D-14 1.31D-08.
 InvSVY:  IOpt=1 It=  1 EMax= 2.66D-15
 Solved reduced A of dimension   170 with    21 vectors.
 Isotropic polarizability for W=    0.000000       69.00 Bohr**3.
 End of Minotr F.D. properties file   721 does not exist.
 End of Minotr F.D. properties file   722 does not exist.
 End of Minotr F.D. properties file   788 does not exist.
 Calling FoFJK, ICntrl=    100127 FMM=F ISym2X=1 I1Cent= 0 IOpClX= 0 NMat=1 NMatS=1 NMatT=0.
 ***** Axes restored to original set *****
 -------------------------------------------------------------------
 Center     Atomic                   Forces (Hartrees/Bohr)
 Number     Number              X              Y              Z
 -------------------------------------------------------------------
      1        6           0.001884298    0.000000000    0.000459288
      2        6           0.001298890    0.000000000    0.000352476
      3       17           0.000277627    0.000000000   -0.000196028
      4        9          -0.001071976    0.001732954   -0.000919517
      5        9          -0.001071976   -0.001732954   -0.000919517
      6       17           0.000224481    0.000437928    0.000237895
      7       17           0.000224481   -0.000437928    0.000237895
      8        9          -0.001765825   -0.000000000    0.000747508
 -------------------------------------------------------------------
 Cartesian Forces:  Max     0.001884298 RMS     0.000911920
 -----------------------------------------------------------------------------------------------
                       Internal Coordinate Forces (Hartree/Bohr or radian)
  Cent   Atom   N1       Length/X         N2         Alpha/Y        N3         Beta/Z          J
 -----------------------------------------------------------------------------------------------
      1  C 
      2  C        1   0.001576(     1)
      3  Cl       1   0.000333(     2)      2   0.000234(     8)
      4  F        1   0.002223(     3)      2   0.000595(     9)      3  -0.000014(    14)     0
      5  F        1   0.002223(     4)      2   0.000595(    10)      3   0.000014(    15)     0
      6  Cl       2   0.000545(     5)      1   0.000157(    11)      3   0.000021(    16)     0
      7  Cl       2   0.000545(     6)      1   0.000157(    12)      3  -0.000021(    17)     0
      8  F        2   0.001904(     7)      1   0.000566(    13)      3   0.000000(    18)     0
 -----------------------------------------------------------------------------------------------
 Internal  Forces:  Max     0.002223054 RMS     0.000995271

 GradGradGradGradGradGradGradGradGradGradGradGradGradGradGradGradGradGrad
 Berny optimization.
 Search for a local minimum.
 Step number   2 out of a maximum of   28
 All quantities printed in internal units (Hartrees-Bohrs-Radians)
 Second derivative matrix not updated -- analytic derivatives used.
 DE= -4.59D-03 DEPred=-4.83D-03 R= 9.51D-01
 TightC=F SS=  1.41D+00  RLast= 1.59D-01 DXNew= 5.0454D-01 4.7625D-01
 Trust test= 9.51D-01 RLast= 1.59D-01 DXMaxT set to 4.76D-01
 The second derivative matrix:
                          r2        r3        a3        r4        a4
           r2           0.26431
           r3           0.01508   0.23053
           a3           0.04792  -0.00182   0.43662
           r4           0.02070   0.04055  -0.03616   0.41801
           a4           0.04540  -0.03962   0.13343   0.00399   0.45733
           d4          -0.00067  -0.04971   0.08558   0.01121  -0.01814
           r5           0.02070   0.04055  -0.03616   0.05421  -0.03653
           a5           0.04540  -0.03962   0.13343  -0.03653   0.13607
           d5           0.00067   0.04971  -0.08558  -0.06808   0.10259
           r6           0.01421   0.00292   0.00506   0.00244   0.00226
           a6           0.04443   0.00563   0.03025  -0.00033   0.01613
           d6           0.00175   0.00003   0.02159   0.00563  -0.01293
           r7           0.01421   0.00292   0.00506   0.00257   0.01282
           a7           0.04443   0.00563   0.03025   0.01490   0.03039
           d7          -0.00175  -0.00003  -0.02159   0.00021  -0.00235
           r8           0.01915   0.00262   0.01384   0.00355  -0.00581
           a8           0.04045   0.01324   0.02972  -0.00502   0.00096
           d8           0.00000   0.00000   0.00000  -0.00846   0.00509
                          d4        r5        a5        d5        r6
           d4           0.44635
           r5           0.06808   0.41801
           a5          -0.10259   0.00399   0.45733
           d5          -0.25497  -0.01121   0.01814   0.44635
           r6           0.00219   0.00257   0.01282   0.00044   0.22469
           a6          -0.01266   0.01490   0.03039   0.00208   0.00408
           d6           0.00686  -0.00021   0.00235   0.00368  -0.00517
           r7          -0.00044   0.00244   0.00226  -0.00219   0.02958
           a7          -0.00208  -0.00033   0.01613   0.01266  -0.03584
           d7           0.00368  -0.00563   0.01293   0.00686  -0.04567
           r8          -0.01010   0.00355  -0.00581   0.01010   0.04036
           a8           0.00672  -0.00502   0.00096  -0.00672  -0.03243
           d8           0.00574   0.00846  -0.00509   0.00574   0.05257
                          a6        d6        r7        a7        d7
           a6           0.42596
           d6           0.00447   0.38868
           r7          -0.03584   0.04567   0.22469
           a7           0.12636  -0.08874   0.00408   0.42596
           d7           0.08874  -0.16255   0.00517  -0.00447   0.38868
           r8          -0.03031  -0.05755   0.04036  -0.03031   0.05755
           a8           0.11286   0.09367  -0.03243   0.11286  -0.09367
           d8          -0.08104  -0.20388  -0.05257   0.08104  -0.20388
                          r8        a8        d8
           r8           0.39990
           a8           0.01349   0.43475
           d8           0.00000   0.00000   0.42327
 ITU=  1  0
     Eigenvalues ---    0.01760   0.12315   0.14757   0.14831   0.18047
     Eigenvalues ---    0.22839   0.27490   0.28425   0.28761   0.35858
     Eigenvalues ---    0.39270   0.42864   0.47677   0.63928   0.64854
     Eigenvalues ---    0.69672   0.76090   0.81706
 RFO step:  Lambda=-1.90824331D-05 EMin= 1.75954116D-02
 Quintic linear search produced a step of -0.04500.
 Variable       Old X    -DE/DX   Delta X   Delta X   Delta X     New X
                                 (Linear)    (Quad)   (Total)
    r2        2.94906   0.00158  -0.00122   0.00605   0.00482   2.95388
    r3        3.33770   0.00033   0.00186  -0.00260  -0.00074   3.33696
    a3        1.97801   0.00023   0.00072  -0.00039   0.00033   1.97835
    r4        2.51779   0.00222   0.00270   0.00210   0.00480   2.52259
    a4        1.88886   0.00059   0.00169  -0.00098   0.00071   1.88956
    d4        4.16119  -0.00001  -0.00021  -0.00027  -0.00048   4.16071
    r5        2.51779   0.00222   0.00270   0.00210   0.00480   2.52259
    a5        1.88886   0.00059   0.00169  -0.00098   0.00071   1.88956
    d5        2.12199   0.00001   0.00021   0.00027   0.00048   2.12247
    r6        3.34221   0.00054   0.00233  -0.00127   0.00106   3.34326
    a6        1.93496   0.00016   0.00121  -0.00142  -0.00021   1.93475
    d6        1.08325   0.00002  -0.00048   0.00065   0.00016   1.08342
    r7        3.34221   0.00054   0.00233  -0.00127   0.00106   3.34326
    a7        1.93496   0.00016   0.00121  -0.00142  -0.00021   1.93475
    d7        5.19993  -0.00002   0.00048  -0.00065  -0.00016   5.19977
    r8        2.53369   0.00190   0.00231   0.00201   0.00431   2.53800
    a8        1.85454   0.00057   0.00237  -0.00137   0.00100   1.85554
    d8        3.14159   0.00000   0.00000   0.00000   0.00000   3.14159
         Item               Value     Threshold  Converged?
 Maximum Force            0.002223     0.000002     NO 
 RMS     Force            0.000995     0.000001     NO 
 Maximum Displacement     0.004824     0.000006     NO 
 RMS     Displacement     0.002278     0.000004     NO 
 Predicted change in Energy=-1.916985D-05
 GradGradGradGradGradGradGradGradGradGradGradGradGradGradGradGradGradGrad

 ---------------------------------------------------------------------------------------------------
                            Z-MATRIX (ANGSTROMS AND DEGREES)
   CD    Cent   Atom    N1       Length/X        N2       Alpha/Y        N3        Beta/Z          J
 ---------------------------------------------------------------------------------------------------
      1      1  C 
      2      2  C        1   1.563128(     1)
      3      3  Cl       1   1.765844(     2)      2  113.351(     8)
      4      4  F        1   1.334896(     3)      2  108.264(     9)      3  238.391(    14)      0
      5      5  F        1   1.334896(     4)      2  108.264(    10)      3  121.609(    15)      0
      6      6  Cl       2   1.769178(     5)      1  110.853(    11)      3   62.075(    16)      0
      7      7  Cl       2   1.769178(     6)      1  110.853(    12)      3  297.925(    17)      0
      8      8  F        2   1.343052(     7)      1  106.315(    13)      3  180.000(    18)      0
 ---------------------------------------------------------------------------------------------------
                         Z-Matrix orientation:                         
 ---------------------------------------------------------------------
 Center     Atomic      Atomic             Coordinates (Angstroms)
 Number     Number       Type             X           Y           Z
 ---------------------------------------------------------------------
      1          6           0        0.000000    0.000000    0.000000
      2          6           0        0.000000    0.000000    1.563128
      3         17           0        1.621212    0.000000   -0.699911
      4          9           0       -0.664394    1.079587   -0.418352
      5          9           0       -0.664394   -1.079587   -0.418352
      6         17           0        0.774255    1.460785    2.192912
      7         17           0        0.774255   -1.460785    2.192912
      8          9           0       -1.288973   -0.000000    1.940407
 ---------------------------------------------------------------------
                    Distance matrix (angstroms):
                    1          2          3          4          5
     1  C    0.000000
     2  C    1.563128   0.000000
     3  Cl   1.765844   2.783823   0.000000
     4  F    1.334896   2.352274   2.543380   0.000000
     5  F    1.334896   2.352274   2.543380   2.159174   0.000000
     6  Cl   2.746311   1.769178   3.349575   3.005615   3.916874
     7  Cl   2.746311   1.769178   3.349575   3.916874   3.005615
     8  F    2.329513   1.343052   3.929434   2.668211   2.668211
                    6          7          8
     6  Cl   0.000000
     7  Cl   2.921570   0.000000
     8  F    2.540583   2.540583   0.000000
 Stoichiometry    C2Cl3F3
 Framework group  CS[SG(C2ClF),X(Cl2F2)]
 Deg. of freedom    11
 Full point group                 CS      NOp   2
 Largest Abelian subgroup         CS      NOp   2
 Largest concise Abelian subgroup CS      NOp   2
                         Standard orientation:                         
 ---------------------------------------------------------------------
 Center     Atomic      Atomic             Coordinates (Angstroms)
 Number     Number       Type             X           Y           Z
 ---------------------------------------------------------------------
      1          6           0        0.144387    0.960342    0.000000
      2          6           0       -0.609901   -0.408752   -0.000000
      3         17           0        1.902098    0.791054    0.000000
      4          9           0       -0.235658    1.647367    1.079587
      5          9           0       -0.235658    1.647367   -1.079587
      6         17           0       -0.235658   -1.333977    1.460785
      7         17           0       -0.235658   -1.333977   -1.460785
      8          9           0       -1.920927   -0.117204   -0.000000
 ---------------------------------------------------------------------
 Rotational constants (GHZ):           1.4259909           1.0750500           1.0052432
 Basis read from rwf:  (5D, 7F)
 There are   129 symmetry adapted cartesian basis functions of A'  symmetry.
 There are    83 symmetry adapted cartesian basis functions of A"  symmetry.
 There are   117 symmetry adapted basis functions of A'  symmetry.
 There are    79 symmetry adapted basis functions of A"  symmetry.
   196 basis functions,   432 primitive gaussians,   212 cartesian basis functions
    45 alpha electrons       45 beta electrons
       nuclear repulsion energy       701.9873035467 Hartrees.
 NAtoms=    8 NActive=    8 NUniq=    6 SFac= 1.78D+00 NAtFMM=   60 NAOKFM=F Big=F
 Integral buffers will be    131072 words long.
 Raffenetti 2 integral format.
 Two-electron integral symmetry is turned on.
 Nuclear repulsion after empirical dispersion term =      701.9845398930 Hartrees.
 One-electron integrals computed using PRISM.
 NBasis=   196 RedAO= T EigKep=  1.66D-04  NBF=   117    79
 NBsUse=   196 1.00D-06 EigRej= -1.00D+00 NBFU=   117    79
 Initial guess from the checkpoint file:  "checkpoint.chk"
 B after Tr=     0.000000   -0.000000   -0.000000
         Rot=    1.000000    0.000000    0.000000   -0.000202 Ang=  -0.02 deg.
 Initial guess orbital symmetries:
       Occupied  (A") (A') (A') (A') (A") (A') (A') (A') (A") (A')
                 (A') (A") (A') (A') (A") (A') (A') (A") (A') (A")
                 (A') (A') (A") (A') (A') (A") (A') (A') (A') (A")
                 (A') (A") (A') (A') (A") (A") (A') (A") (A') (A')
                 (A") (A') (A') (A") (A")
       Virtual   (A') (A') (A") (A') (A') (A') (A") (A') (A') (A")
                 (A") (A') (A') (A') (A') (A") (A") (A") (A') (A')
                 (A") (A') (A') (A') (A") (A') (A") (A') (A") (A')
                 (A") (A') (A') (A") (A') (A') (A') (A') (A") (A")
                 (A') (A") (A") (A') (A') (A") (A') (A") (A") (A')
                 (A') (A') (A") (A') (A') (A') (A") (A') (A") (A')
                 (A") (A') (A') (A") (A') (A') (A") (A') (A") (A')
                 (A") (A') (A') (A") (A") (A") (A') (A') (A') (A')
                 (A") (A') (A") (A') (A") (A') (A") (A") (A') (A")
                 (A') (A") (A') (A') (A') (A") (A') (A") (A') (A")
                 (A") (A') (A') (A") (A") (A') (A") (A') (A') (A')
                 (A") (A') (A') (A") (A') (A') (A") (A") (A') (A')
                 (A') (A") (A') (A') (A") (A') (A") (A') (A") (A')
                 (A') (A") (A') (A") (A") (A") (A') (A') (A") (A')
                 (A") (A') (A") (A') (A') (A') (A") (A') (A') (A")
                 (A')
 Requested convergence on RMS density matrix=1.00D-08 within 128 cycles.
 Requested convergence on MAX density matrix=1.00D-06.
 Requested convergence on             energy=1.00D-06.
 No special actions if energy rises.
 SCF Done:  E(RwB97XD) =  -1756.15946902     A.U. after    9 cycles
            NFock=  9  Conv=0.35D-08     -V/T= 2.0012
 DoSCS=F DFT=T ScalE2(SS,OS)=  1.000000  1.000000
 Range of M.O.s used for correlation:     1   196
 NBasis=   196 NAE=    45 NBE=    45 NFC=     0 NFV=     0
 NROrb=    196 NOA=    45 NOB=    45 NVA=   151 NVB=   151

 **** Warning!!: The largest alpha MO coefficient is  0.20734334D+02

 Symmetrizing basis deriv contribution to polar:
 IMax=3 JMax=2 DiffMx= 0.00D+00
 G2DrvN: will do     9 centers at a time, making    1 passes.
 Calling FoFCou, ICntrl=  3107 FMM=F I1Cent=   0 AccDes= 0.00D+00.
 End of G2Drv F.D. properties file   721 does not exist.
 End of G2Drv F.D. properties file   722 does not exist.
 End of G2Drv F.D. properties file   788 does not exist.
          IDoAtm=11111111
          Differentiating once with respect to electric field.
                with respect to dipole field.
          Differentiating once with respect to nuclear coordinates.
 CalDSu exits because no D1Ps are significant.
          There are    21 degrees of freedom in the 1st order CPHF.  IDoFFX=4 NUNeed=    21.
     21 vectors produced by pass  0 Test12= 3.24D-14 4.76D-09 XBig12= 3.12D+01 1.91D+00.
 AX will form    21 AO Fock derivatives at one time.
     21 vectors produced by pass  1 Test12= 3.24D-14 4.76D-09 XBig12= 4.18D+00 3.98D-01.
     21 vectors produced by pass  2 Test12= 3.24D-14 4.76D-09 XBig12= 3.35D-01 8.48D-02.
     21 vectors produced by pass  3 Test12= 3.24D-14 4.76D-09 XBig12= 2.68D-02 2.10D-02.
     21 vectors produced by pass  4 Test12= 3.24D-14 4.76D-09 XBig12= 3.55D-04 3.61D-03.
     21 vectors produced by pass  5 Test12= 3.24D-14 4.76D-09 XBig12= 3.78D-06 3.30D-04.
     21 vectors produced by pass  6 Test12= 3.24D-14 4.76D-09 XBig12= 3.99D-08 3.30D-05.
     18 vectors produced by pass  7 Test12= 3.24D-14 4.76D-09 XBig12= 3.29D-10 2.73D-06.
      4 vectors produced by pass  8 Test12= 3.24D-14 4.76D-09 XBig12= 2.32D-12 1.88D-07.
      3 vectors produced by pass  9 Test12= 3.24D-14 4.76D-09 XBig12= 1.47D-14 1.27D-08.
 InvSVY:  IOpt=1 It=  1 EMax= 4.44D-15
 Solved reduced A of dimension   172 with    21 vectors.
 Isotropic polarizability for W=    0.000000       69.08 Bohr**3.
 End of Minotr F.D. properties file   721 does not exist.
 End of Minotr F.D. properties file   722 does not exist.
 End of Minotr F.D. properties file   788 does not exist.
 Calling FoFJK, ICntrl=    100127 FMM=F ISym2X=1 I1Cent= 0 IOpClX= 0 NMat=1 NMatS=1 NMatT=0.
 ***** Axes restored to original set *****
 -------------------------------------------------------------------
 Center     Atomic                   Forces (Hartrees/Bohr)
 Number     Number              X              Y              Z
 -------------------------------------------------------------------
      1        6          -0.000035805   -0.000000000    0.000080167
      2        6          -0.000068285   -0.000000000   -0.000107917
      3       17           0.000019267    0.000000000   -0.000009536
      4        9           0.000016764   -0.000028010    0.000009379
      5        9           0.000016764    0.000028010    0.000009379
      6       17           0.000010415    0.000014937    0.000009689
      7       17           0.000010415   -0.000014937    0.000009689
      8        9           0.000030465    0.000000000   -0.000000849
 -------------------------------------------------------------------
 Cartesian Forces:  Max     0.000107917 RMS     0.000034500
 -----------------------------------------------------------------------------------------------
                       Internal Coordinate Forces (Hartree/Bohr or radian)
  Cent   Atom   N1       Length/X         N2         Alpha/Y        N3         Beta/Z          J
 -----------------------------------------------------------------------------------------------
      1  C 
      2  C        1  -0.000089(     1)
      3  Cl       1   0.000021(     2)      2   0.000004(     8)
      4  F        1  -0.000034(     3)      2   0.000003(     9)      3  -0.000001(    14)     0
      5  F        1  -0.000034(     4)      2   0.000003(    10)      3   0.000001(    15)     0
      6  Cl       2   0.000020(     5)      1   0.000009(    11)      3  -0.000007(    16)     0
      7  Cl       2   0.000020(     6)      1   0.000009(    12)      3   0.000007(    17)     0
      8  F        2  -0.000029(     7)      1   0.000020(    13)      3  -0.000000(    18)     0
 -----------------------------------------------------------------------------------------------
 Internal  Forces:  Max     0.000089388 RMS     0.000027002

 GradGradGradGradGradGradGradGradGradGradGradGradGradGradGradGradGradGrad
 Berny optimization.
 Search for a local minimum.
 Step number   3 out of a maximum of   28
 All quantities printed in internal units (Hartrees-Bohrs-Radians)
 Second derivative matrix not updated -- analytic derivatives used.
 DE= -1.93D-05 DEPred=-1.92D-05 R= 1.01D+00
 TightC=F SS=  1.41D+00  RLast= 9.67D-03 DXNew= 8.0095D-01 2.8998D-02
 Trust test= 1.01D+00 RLast= 9.67D-03 DXMaxT set to 4.76D-01
 The second derivative matrix:
                          r2        r3        a3        r4        a4
           r2           0.26042
           r3           0.01500   0.23043
           a3           0.04768  -0.00191   0.43538
           r4           0.02035   0.04036  -0.03615   0.41086
           a4           0.04458  -0.03943   0.13322   0.00343   0.45410
           d4          -0.00066  -0.04946   0.08540   0.01094  -0.01767
           r5           0.02035   0.04036  -0.03615   0.05371  -0.03635
           a5           0.04458  -0.03943   0.13322  -0.03635   0.13539
           d5           0.00066   0.04946  -0.08540  -0.06754   0.10211
           r6           0.01413   0.00292   0.00506   0.00246   0.00218
           a6           0.04407   0.00563   0.03008  -0.00029   0.01571
           d6           0.00181   0.00002   0.02137   0.00560  -0.01262
           r7           0.01413   0.00292   0.00506   0.00256   0.01278
           a7           0.04407   0.00563   0.03008   0.01483   0.03032
           d7          -0.00181  -0.00002  -0.02137   0.00023  -0.00227
           r8           0.01889   0.00261   0.01377   0.00358  -0.00569
           a8           0.03972   0.01321   0.02967  -0.00494   0.00079
           d8          -0.00000   0.00000   0.00000  -0.00839   0.00492
                          d4        r5        a5        d5        r6
           d4           0.44409
           r5           0.06754   0.41086
           a5          -0.10211   0.00343   0.45410
           d5          -0.25357  -0.01094   0.01767   0.44409
           r6           0.00224   0.00256   0.01278   0.00042   0.22372
           a6          -0.01232   0.01483   0.03032   0.00202   0.00395
           d6           0.00670  -0.00023   0.00227   0.00364  -0.00502
           r7          -0.00042   0.00246   0.00218  -0.00224   0.02950
           a7          -0.00202  -0.00029   0.01571   0.01232  -0.03568
           d7           0.00364  -0.00560   0.01262   0.00670  -0.04554
           r8          -0.01001   0.00358  -0.00569   0.01001   0.04014
           a8           0.00651  -0.00494   0.00079  -0.00651  -0.03228
           d8           0.00561   0.00839  -0.00492   0.00561   0.05231
                          a6        d6        r7        a7        d7
           a6           0.42431
           d6           0.00468   0.38743
           r7          -0.03568   0.04554   0.22372
           a7           0.12607  -0.08850   0.00395   0.42431
           d7           0.08850  -0.16221   0.00502  -0.00468   0.38743
           r8          -0.03029  -0.05735   0.04014  -0.03029   0.05735
           a8           0.11260   0.09334  -0.03228   0.11260  -0.09334
           d8          -0.08095  -0.20324  -0.05231   0.08095  -0.20324
                          r8        a8        d8
           r8           0.39378
           a8           0.01290   0.43164
           d8          -0.00000  -0.00000   0.42169
 ITU=  1  1  0
     Eigenvalues ---    0.01738   0.12216   0.14654   0.14762   0.17931
     Eigenvalues ---    0.22512   0.27376   0.28245   0.28584   0.35613
     Eigenvalues ---    0.38667   0.42279   0.46969   0.63701   0.64608
     Eigenvalues ---    0.69443   0.75756   0.81185
 RFO step:  Lambda=-3.67633240D-08 EMin= 1.73775823D-02
 Quintic linear search produced a step of -0.02089.
 Variable       Old X    -DE/DX   Delta X   Delta X   Delta X     New X
                                 (Linear)    (Quad)   (Total)
    r2        2.95388  -0.00009  -0.00010  -0.00028  -0.00038   2.95350
    r3        3.33696   0.00002   0.00002   0.00014   0.00016   3.33712
    a3        1.97835   0.00000  -0.00001   0.00001   0.00000   1.97835
    r4        2.52259  -0.00003  -0.00010   0.00003  -0.00007   2.52252
    a4        1.88956   0.00000  -0.00001   0.00005   0.00004   1.88960
    d4        4.16071  -0.00000   0.00001   0.00001   0.00002   4.16073
    r5        2.52259  -0.00003  -0.00010   0.00003  -0.00007   2.52252
    a5        1.88956   0.00000  -0.00001   0.00005   0.00004   1.88960
    d5        2.12247   0.00000  -0.00001  -0.00001  -0.00002   2.12245
    r6        3.34326   0.00002  -0.00002   0.00016   0.00014   3.34340
    a6        1.93475   0.00001   0.00000   0.00001   0.00002   1.93477
    d6        1.08342  -0.00001  -0.00000  -0.00004  -0.00005   1.08337
    r7        3.34326   0.00002  -0.00002   0.00016   0.00014   3.34340
    a7        1.93475   0.00001   0.00000   0.00001   0.00002   1.93477
    d7        5.19977   0.00001   0.00000   0.00004   0.00005   5.19981
    r8        2.53800  -0.00003  -0.00009  -0.00001  -0.00010   2.53791
    a8        1.85554   0.00002  -0.00002   0.00013   0.00011   1.85565
    d8        3.14159  -0.00000  -0.00000  -0.00000  -0.00000   3.14159
         Item               Value     Threshold  Converged?
 Maximum Force            0.000089     0.000002     NO 
 RMS     Force            0.000027     0.000001     NO 
 Maximum Displacement     0.000385     0.000006     NO 
 RMS     Displacement     0.000118     0.000004     NO 
 Predicted change in Energy=-2.708119D-08
 GradGradGradGradGradGradGradGradGradGradGradGradGradGradGradGradGradGrad

 ---------------------------------------------------------------------------------------------------
                            Z-MATRIX (ANGSTROMS AND DEGREES)
   CD    Cent   Atom    N1       Length/X        N2       Alpha/Y        N3        Beta/Z          J
 ---------------------------------------------------------------------------------------------------
      1      1  C 
      2      2  C        1   1.562924(     1)
      3      3  Cl       1   1.765926(     2)      2  113.351(     8)
      4      4  F        1   1.334859(     3)      2  108.266(     9)      3  238.392(    14)      0
      5      5  F        1   1.334859(     4)      2  108.266(    10)      3  121.608(    15)      0
      6      6  Cl       2   1.769251(     5)      1  110.854(    11)      3   62.073(    16)      0
      7      7  Cl       2   1.769251(     6)      1  110.854(    12)      3  297.927(    17)      0
      8      8  F        2   1.343002(     7)      1  106.321(    13)      3  180.000(    18)      0
 ---------------------------------------------------------------------------------------------------
                         Z-Matrix orientation:                         
 ---------------------------------------------------------------------
 Center     Atomic      Atomic             Coordinates (Angstroms)
 Number     Number       Type             X           Y           Z
 ---------------------------------------------------------------------
      1          6           0        0.000000    0.000000    0.000000
      2          6           0        0.000000    0.000000    1.562924
      3         17           0        1.621287    0.000000   -0.699947
      4          9           0       -0.664344    1.079558   -0.418389
      5          9           0       -0.664344   -1.079558   -0.418389
      6         17           0        0.774348    1.460800    2.192764
      7         17           0        0.774348   -1.460800    2.192764
      8          9           0       -1.288883   -0.000000    1.940327
 ---------------------------------------------------------------------
                    Distance matrix (angstroms):
                    1          2          3          4          5
     1  C    0.000000
     2  C    1.562924   0.000000
     3  Cl   1.765926   2.783731   0.000000
     4  F    1.334859   2.352106   2.543389   0.000000
     5  F    1.334859   2.352106   2.543389   2.159115   0.000000
     6  Cl   2.746227   1.769251   3.349480   3.005545   3.916806
     7  Cl   2.746227   1.769251   3.349480   3.916806   3.005545
     8  F    2.329397   1.343002   3.929394   2.668153   2.668153
                    6          7          8
     6  Cl   0.000000
     7  Cl   2.921599   0.000000
     8  F    2.540587   2.540587   0.000000
 Stoichiometry    C2Cl3F3
 Framework group  CS[SG(C2ClF),X(Cl2F2)]
 Deg. of freedom    11
 Full point group                 CS      NOp   2
 Largest Abelian subgroup         CS      NOp   2
 Largest concise Abelian subgroup CS      NOp   2
                         Standard orientation:                         
 ---------------------------------------------------------------------
 Center     Atomic      Atomic             Coordinates (Angstroms)
 Number     Number       Type             X           Y           Z
 ---------------------------------------------------------------------
      1          6           0        0.144313    0.960290    0.000000
      2          6           0       -0.609919   -0.408602   -0.000000
      3         17           0        1.902101    0.790944    0.000000
      4          9           0       -0.235650    1.647335    1.079558
      5          9           0       -0.235650    1.647335   -1.079558
      6         17           0       -0.235650   -1.333933    1.460800
      7         17           0       -0.235650   -1.333933   -1.460800
      8          9           0       -1.920918   -0.117166    0.000000
 ---------------------------------------------------------------------
 Rotational constants (GHZ):           1.4259752           1.0751000           1.0052925
 Basis read from rwf:  (5D, 7F)
 There are   129 symmetry adapted cartesian basis functions of A'  symmetry.
 There are    83 symmetry adapted cartesian basis functions of A"  symmetry.
 There are   117 symmetry adapted basis functions of A'  symmetry.
 There are    79 symmetry adapted basis functions of A"  symmetry.
   196 basis functions,   432 primitive gaussians,   212 cartesian basis functions
    45 alpha electrons       45 beta electrons
       nuclear repulsion energy       701.9962884375 Hartrees.
 NAtoms=    8 NActive=    8 NUniq=    6 SFac= 1.78D+00 NAtFMM=   60 NAOKFM=F Big=F
 Integral buffers will be    131072 words long.
 Raffenetti 2 integral format.
 Two-electron integral symmetry is turned on.
 Nuclear repulsion after empirical dispersion term =      701.9935249860 Hartrees.
 One-electron integrals computed using PRISM.
 NBasis=   196 RedAO= T EigKep=  1.66D-04  NBF=   117    79
 NBsUse=   196 1.00D-06 EigRej= -1.00D+00 NBFU=   117    79
 Initial guess from the checkpoint file:  "checkpoint.chk"
 B after Tr=    -0.000000    0.000000   -0.000000
         Rot=    1.000000    0.000000    0.000000    0.000010 Ang=   0.00 deg.
 Initial guess orbital symmetries:
       Occupied  (A") (A') (A') (A') (A") (A') (A') (A') (A") (A')
                 (A') (A") (A') (A') (A") (A') (A') (A") (A') (A")
                 (A') (A') (A") (A') (A') (A") (A') (A') (A') (A")
                 (A') (A") (A') (A') (A") (A") (A') (A") (A') (A')
                 (A") (A') (A') (A") (A")
       Virtual   (A') (A') (A") (A') (A') (A') (A") (A') (A') (A")
                 (A") (A') (A') (A') (A') (A") (A") (A") (A') (A')
                 (A") (A') (A') (A') (A") (A') (A") (A') (A") (A')
                 (A") (A') (A') (A") (A') (A') (A') (A') (A") (A")
                 (A') (A") (A") (A') (A') (A") (A') (A") (A") (A')
                 (A') (A') (A") (A') (A') (A') (A") (A') (A") (A')
                 (A") (A') (A') (A") (A') (A') (A") (A') (A") (A')
                 (A") (A') (A') (A") (A") (A") (A') (A') (A') (A')
                 (A") (A') (A") (A') (A") (A') (A") (A') (A") (A")
                 (A') (A") (A') (A') (A') (A") (A') (A") (A') (A")
                 (A") (A') (A') (A") (A") (A') (A") (A') (A') (A')
                 (A") (A') (A') (A") (A') (A') (A") (A") (A') (A')
                 (A') (A") (A') (A') (A") (A') (A") (A') (A") (A')
                 (A') (A") (A') (A") (A") (A") (A') (A') (A") (A')
                 (A") (A') (A') (A") (A') (A') (A") (A') (A') (A")
                 (A')
 Requested convergence on RMS density matrix=1.00D-08 within 128 cycles.
 Requested convergence on MAX density matrix=1.00D-06.
 Requested convergence on             energy=1.00D-06.
 No special actions if energy rises.
 SCF Done:  E(RwB97XD) =  -1756.15946905     A.U. after    6 cycles
            NFock=  6  Conv=0.60D-08     -V/T= 2.0012
 DoSCS=F DFT=T ScalE2(SS,OS)=  1.000000  1.000000
 Range of M.O.s used for correlation:     1   196
 NBasis=   196 NAE=    45 NBE=    45 NFC=     0 NFV=     0
 NROrb=    196 NOA=    45 NOB=    45 NVA=   151 NVB=   151

 **** Warning!!: The largest alpha MO coefficient is  0.20742001D+02

 Symmetrizing basis deriv contribution to polar:
 IMax=3 JMax=2 DiffMx= 0.00D+00
 G2DrvN: will do     9 centers at a time, making    1 passes.
 Calling FoFCou, ICntrl=  3107 FMM=F I1Cent=   0 AccDes= 0.00D+00.
 End of G2Drv F.D. properties file   721 does not exist.
 End of G2Drv F.D. properties file   722 does not exist.
 End of G2Drv F.D. properties file   788 does not exist.
          IDoAtm=11111111
          Differentiating once with respect to electric field.
                with respect to dipole field.
          Differentiating once with respect to nuclear coordinates.
 CalDSu exits because no D1Ps are significant.
          There are    21 degrees of freedom in the 1st order CPHF.  IDoFFX=4 NUNeed=    21.
     21 vectors produced by pass  0 Test12= 3.24D-14 4.76D-09 XBig12= 3.12D+01 1.91D+00.
 AX will form    21 AO Fock derivatives at one time.
     21 vectors produced by pass  1 Test12= 3.24D-14 4.76D-09 XBig12= 4.18D+00 3.98D-01.
     21 vectors produced by pass  2 Test12= 3.24D-14 4.76D-09 XBig12= 3.35D-01 8.48D-02.
     21 vectors produced by pass  3 Test12= 3.24D-14 4.76D-09 XBig12= 2.68D-02 2.10D-02.
     21 vectors produced by pass  4 Test12= 3.24D-14 4.76D-09 XBig12= 3.55D-04 3.61D-03.
     21 vectors produced by pass  5 Test12= 3.24D-14 4.76D-09 XBig12= 3.79D-06 3.30D-04.
     21 vectors produced by pass  6 Test12= 3.24D-14 4.76D-09 XBig12= 4.00D-08 3.30D-05.
     18 vectors produced by pass  7 Test12= 3.24D-14 4.76D-09 XBig12= 3.29D-10 2.73D-06.
      4 vectors produced by pass  8 Test12= 3.24D-14 4.76D-09 XBig12= 2.32D-12 1.88D-07.
      3 vectors produced by pass  9 Test12= 3.24D-14 4.76D-09 XBig12= 1.47D-14 1.27D-08.
 InvSVY:  IOpt=1 It=  1 EMax= 5.33D-15
 Solved reduced A of dimension   172 with    21 vectors.
 Isotropic polarizability for W=    0.000000       69.08 Bohr**3.
 End of Minotr F.D. properties file   721 does not exist.
 End of Minotr F.D. properties file   722 does not exist.
 End of Minotr F.D. properties file   788 does not exist.
 Calling FoFJK, ICntrl=    100127 FMM=F ISym2X=1 I1Cent= 0 IOpClX= 0 NMat=1 NMatS=1 NMatT=0.
 ***** Axes restored to original set *****
 -------------------------------------------------------------------
 Center     Atomic                   Forces (Hartrees/Bohr)
 Number     Number              X              Y              Z
 -------------------------------------------------------------------
      1        6           0.000011258    0.000000000   -0.000000228
      2        6          -0.000011278   -0.000000000    0.000000095
      3       17          -0.000000059    0.000000000    0.000000022
      4        9           0.000000029   -0.000000087    0.000000056
      5        9           0.000000029    0.000000087    0.000000056
      6       17           0.000000011    0.000000055   -0.000000000
      7       17           0.000000011   -0.000000055   -0.000000000
      8        9           0.000000000   -0.000000000   -0.000000001
 -------------------------------------------------------------------
 Cartesian Forces:  Max     0.000011278 RMS     0.000003253
 -----------------------------------------------------------------------------------------------
                       Internal Coordinate Forces (Hartree/Bohr or radian)
  Cent   Atom   N1       Length/X         N2         Alpha/Y        N3         Beta/Z          J
 -----------------------------------------------------------------------------------------------
      1  C 
      2  C        1   0.000000(     1)
      3  Cl       1  -0.000000(     2)      2   0.000000(     8)
[...]
                       Q            Log10(Q)             Ln(Q)
 Total Bot       0.342722D+05          4.534942         10.442091
 Total V=0       0.377606D+16         15.577039         35.867458
 Vib (Bot)       0.492064D-09         -9.307978        -21.432412
 Vib (Bot)    1  0.288634D+01          0.460348          1.059990
 Vib (Bot)    2  0.120849D+01          0.082243          0.189371
 Vib (Bot)    3  0.112758D+01          0.052147          0.120072
 Vib (Bot)    4  0.765494D+00         -0.116058         -0.267233
 Vib (Bot)    5  0.617482D+00         -0.209376         -0.482105
 Vib (Bot)    6  0.604058D+00         -0.218921         -0.504085
 Vib (Bot)    7  0.479733D+00         -0.319000         -0.734525
 Vib (Bot)    8  0.468571D+00         -0.329225         -0.758069
 Vib (Bot)    9  0.389692D+00         -0.409279         -0.942399
 Vib (Bot)   10  0.368384D+00         -0.433699         -0.998629
 Vib (Bot)   11  0.316580D+00         -0.499516         -1.150178
 Vib (V=0)       0.542149D+02          1.734119          3.992956
 Vib (V=0)    1  0.342933D+01          0.535209          1.232365
 Vib (V=0)    2  0.180784D+01          0.257160          0.592133
 Vib (V=0)    3  0.173346D+01          0.238915          0.550121
 Vib (V=0)    4  0.141432D+01          0.150548          0.346649
 Vib (V=0)    5  0.129453D+01          0.112113          0.258151
 Vib (V=0)    6  0.128415D+01          0.108615          0.250094
 Vib (V=0)    7  0.119292D+01          0.076613          0.176408
 Vib (V=0)    8  0.118524D+01          0.073808          0.169948
 Vib (V=0)    9  0.113392D+01          0.054584          0.125684
 Vib (V=0)   10  0.112105D+01          0.049626          0.114268
 Vib (V=0)   11  0.109180D+01          0.038142          0.087825
 Electronic      0.100000D+01          0.000000          0.000000
 Translational   0.996275D+08          7.998379         18.416949
 Rotational      0.699103D+06          5.844541         13.457554
 ***** Axes restored to original set *****
 -------------------------------------------------------------------
 Center     Atomic                   Forces (Hartrees/Bohr)
 Number     Number              X              Y              Z
 -------------------------------------------------------------------
      1        6           0.000011275    0.000000000   -0.000000214
      2        6          -0.000011313   -0.000000000    0.000000115
      3       17          -0.000000053   -0.000000000    0.000000007
      4        9           0.000000020   -0.000000068    0.000000049
      5        9           0.000000020    0.000000068    0.000000049
      6       17           0.000000020    0.000000042    0.000000003
      7       17           0.000000020   -0.000000042    0.000000003
      8        9           0.000000011   -0.000000000   -0.000000012
 -------------------------------------------------------------------
 Cartesian Forces:  Max     0.000011313 RMS     0.000003261
 -----------------------------------------------------------------------------------------------
                       Internal Coordinate Forces (Hartree/Bohr or radian)
  Cent   Atom   N1       Length/X         N2         Alpha/Y        N3         Beta/Z          J
 -----------------------------------------------------------------------------------------------
      1  C 
      2  C        1   0.000000(     1)
      3  Cl       1  -0.000000(     2)      2   0.000000(     8)
      4  F        1  -0.000000(     3)      2  -0.000000(     9)      3  -0.000000(    14)     0
      5  F        1  -0.000000(     4)      2  -0.000000(    10)      3   0.000000(    15)     0
      6  Cl       2   0.000000(     5)      1  -0.000000(    11)      3   0.000000(    16)     0
      7  Cl       2   0.000000(     6)      1  -0.000000(    12)      3  -0.000000(    17)     0
      8  F        2  -0.000000(     7)      1  -0.000000(    13)      3   0.000000(    18)     0
 -----------------------------------------------------------------------------------------------
 Internal  Forces:  Max     0.000000110 RMS     0.000000053

 GradGradGradGradGradGradGradGradGradGradGradGradGradGradGradGradGradGrad
 Berny optimization.
 Search for a local minimum.
 Step number   1 out of a maximum of    2
 All quantities printed in internal units (Hartrees-Bohrs-Radians)
 Second derivative matrix not updated -- analytic derivatives used.
 The second derivative matrix:
                          r2        r3        a3        r4        a4
           r2           0.26067
           r3           0.01500   0.23036
           a3           0.04769  -0.00191   0.43543
           r4           0.02036   0.04036  -0.03615   0.41097
           a4           0.04460  -0.03944   0.13322   0.00344   0.45417
           d4          -0.00066  -0.04946   0.08541   0.01095  -0.01770
           r5           0.02036   0.04036  -0.03615   0.05372  -0.03636
           a5           0.04460  -0.03944   0.13322  -0.03636   0.13542
           d5           0.00066   0.04946  -0.08541  -0.06755   0.10213
           r6           0.01413   0.00292   0.00506   0.00245   0.00218
           a6           0.04408   0.00563   0.03009  -0.00029   0.01572
           d6           0.00181   0.00002   0.02139   0.00560  -0.01264
           r7           0.01413   0.00292   0.00506   0.00255   0.01278
           a7           0.04408   0.00563   0.03009   0.01483   0.03032
           d7          -0.00181  -0.00002  -0.02139   0.00023  -0.00227
           r8           0.01889   0.00261   0.01377   0.00358  -0.00570
           a8           0.03972   0.01320   0.02967  -0.00494   0.00079
           d8          -0.00000   0.00000   0.00000  -0.00839   0.00493
                          d4        r5        a5        d5        r6
           d4           0.44411
           r5           0.06755   0.41097
           a5          -0.10213   0.00344   0.45417
           d5          -0.25359  -0.01095   0.01770   0.44411
           r6           0.00223   0.00255   0.01278   0.00042   0.22366
           a6          -0.01233   0.01483   0.03032   0.00202   0.00395
           d6           0.00671  -0.00023   0.00227   0.00365  -0.00502
           r7          -0.00042   0.00245   0.00218  -0.00223   0.02950
           a7          -0.00202  -0.00029   0.01572   0.01233  -0.03568
           d7           0.00365  -0.00560   0.01264   0.00671  -0.04554
           r8          -0.01001   0.00358  -0.00570   0.01001   0.04014
           a8           0.00651  -0.00494   0.00079  -0.00651  -0.03228
           d8           0.00561   0.00839  -0.00493   0.00561   0.05231
                          a6        d6        r7        a7        d7
           a6           0.42435
           d6           0.00469   0.38744
           r7          -0.03568   0.04554   0.22366
           a7           0.12606  -0.08850   0.00395   0.42435
           d7           0.08850  -0.16222   0.00502  -0.00469   0.38744
           r8          -0.03029  -0.05735   0.04014  -0.03029   0.05735
           a8           0.11262   0.09334  -0.03228   0.11262  -0.09334
           d8          -0.08097  -0.20323  -0.05231   0.08097  -0.20323
                          r8        a8        d8
           r8           0.39391
           a8           0.01290   0.43167
           d8           0.00000  -0.00000   0.42166
 ITU=  0
     Eigenvalues ---    0.01739   0.12215   0.14652   0.14759   0.17930
     Eigenvalues ---    0.22532   0.27373   0.28246   0.28587   0.35615
     Eigenvalues ---    0.38676   0.42289   0.46981   0.63702   0.64612
     Eigenvalues ---    0.69442   0.75762   0.81197
 Angle between quadratic step and forces=  90.00 degrees.
 Linear search not attempted -- first point.
 Variable       Old X    -DE/DX   Delta X   Delta X   Delta X     New X
                                 (Linear)    (Quad)   (Total)
    r2        2.95350   0.00000   0.00000   0.00000   0.00000   2.95350
    r3        3.33712  -0.00000   0.00000  -0.00000  -0.00000   3.33712
    a3        1.97835   0.00000   0.00000   0.00000   0.00000   1.97835
    r4        2.52252  -0.00000   0.00000  -0.00000  -0.00000   2.52252
    a4        1.88960  -0.00000   0.00000  -0.00000  -0.00000   1.88960
    d4        4.16073  -0.00000   0.00000  -0.00000  -0.00000   4.16073
    r5        2.52252  -0.00000   0.00000  -0.00000  -0.00000   2.52252
    a5        1.88960  -0.00000   0.00000  -0.00000  -0.00000   1.88960
    d5        2.12245   0.00000   0.00000   0.00000   0.00000   2.12245
    r6        3.34340   0.00000   0.00000   0.00000   0.00000   3.34340
    a6        1.93477  -0.00000   0.00000  -0.00000  -0.00000   1.93477
    d6        1.08337   0.00000   0.00000  -0.00000  -0.00000   1.08337
    r7        3.34340   0.00000   0.00000   0.00000   0.00000   3.34340
    a7        1.93477  -0.00000   0.00000  -0.00000  -0.00000   1.93477
    d7        5.19981  -0.00000   0.00000   0.00000   0.00000   5.19981
    r8        2.53791  -0.00000   0.00000  -0.00000  -0.00000   2.53791
    a8        1.85565  -0.00000   0.00000   0.00000   0.00000   1.85565
    d8        3.14159   0.00000   0.00000  -0.00000  -0.00000   3.14159
         Item               Value     Threshold  Converged?
 Maximum Force            0.000000     0.000002     YES
 RMS     Force            0.000000     0.000001     YES
 Maximum Displacement     0.000001     0.000006     YES
 RMS     Displacement     0.000000     0.000004     YES
 Predicted change in Energy=-9.472772D-14
 Optimization completed.
    -- Stationary point found.
                       ----------------------------
                       !   Optimized Parameters   !
                       ! (Angstroms and Degrees)  !
 ----------------------                            ----------------------
 !      Name          Value   Derivative information (Atomic Units)     !
 ------------------------------------------------------------------------
 !       r2          1.5629   -DE/DX =    0.0                           !
 !       r3          1.7659   -DE/DX =    0.0                           !
 !       a3        113.351    -DE/DX =    0.0                           !
 !       r4          1.3349   -DE/DX =    0.0                           !
 !       a4        108.2663   -DE/DX =    0.0                           !
 !       d4        238.3924   -DE/DX =    0.0                           !
 !       r5          1.3349   -DE/DX =    0.0                           !
 !       a5        108.2663   -DE/DX =    0.0                           !
 !       d5        121.6076   -DE/DX =    0.0                           !
 !       r6          1.7693   -DE/DX =    0.0                           !
 !       a6        110.8543   -DE/DX =    0.0                           !
 !       d6         62.0726   -DE/DX =    0.0                           !
 !       r7          1.7693   -DE/DX =    0.0                           !
 !       a7        110.8543   -DE/DX =    0.0                           !
 !       d7        297.9274   -DE/DX =    0.0                           !
 !       r8          1.343    -DE/DX =    0.0                           !
 !       a8        106.3208   -DE/DX =    0.0                           !
 !       d8        180.0      -DE/DX =    0.0                           !
 ------------------------------------------------------------------------
 GradGradGradGradGradGradGradGradGradGradGradGradGradGradGradGradGradGrad


 ----------------------------------------------------------------------

 Electric dipole moment (input orientation):
 (Debye = 10**-18 statcoulomb cm , SI units = C m)
                  (au)            (Debye)         (10**-30 SI)
   Tot        0.301601D+00      0.766594D+00      0.255708D+01
   x          0.291408D+00      0.740684D+00      0.247066D+01
   y          0.000000D+00      0.000000D+00      0.000000D+00
   z          0.777495D-01      0.197620D+00      0.659188D+00

 Dipole polarizability, Alpha (input orientation).
 (esu units = cm**3 , SI units = C**2 m**2 J**-1)
 Alpha(0;0):
               (au)            (10**-24 esu)      (10**-40 SI)
   iso        0.690836D+02      0.102371D+02      0.113904D+02
   aniso      0.654107D+01      0.969287D+00      0.107848D+01
   xx         0.661987D+02      0.980964D+01      0.109147D+02
   yx         0.000000D+00      0.000000D+00      0.000000D+00
   yy         0.727591D+02      0.107818D+02      0.119964D+02
   zx        -0.174169D+01     -0.258091D+00     -0.287165D+00
   zy         0.000000D+00      0.000000D+00      0.000000D+00
   zz         0.682930D+02      0.101200D+02      0.112600D+02

 ----------------------------------------------------------------------

 Dipole orientation:
     6         -0.00000000         -0.00000000          0.00000000
     6         -2.85367398         -0.00000001          0.76137951
    17          2.06781335          0.00000000          2.61925549
     9          0.44028269          2.04006807         -1.41681559
     9          0.44028269         -2.04006807         -1.41681559
    17         -3.62644587          2.76051133          2.48205468
    17         -3.62644586         -2.76051135          2.48205468
     9         -4.17063827         -0.00000001         -1.40808311

 Electric dipole moment (dipole orientation):
 (Debye = 10**-18 statcoulomb cm , SI units = C m)
                  (au)            (Debye)         (10**-30 SI)
   Tot        0.301601D+00      0.766594D+00      0.255708D+01
   x          0.000000D+00      0.000000D+00      0.000000D+00
   y          0.000000D+00      0.000000D+00      0.000000D+00
   z          0.301601D+00      0.766594D+00      0.255708D+01

 Dipole polarizability, Alpha (dipole orientation).
 (esu units = cm**3 , SI units = C**2 m**2 J**-1)
 Alpha(0;0):
               (au)            (10**-24 esu)      (10**-40 SI)
   iso        0.690836D+02      0.102371D+02      0.113904D+02
   aniso      0.654107D+01      0.969287D+00      0.107848D+01
   xx         0.690215D+02      0.102279D+02      0.113801D+02
   yx         0.000000D+00      0.000000D+00      0.000000D+00
   yy         0.727591D+02      0.107818D+02      0.119964D+02
   zx         0.988560D+00      0.146489D+00      0.162992D+00
   zy         0.000000D+00      0.000000D+00      0.000000D+00
   zz         0.654703D+02      0.970170D+01      0.107946D+02

 ----------------------------------------------------------------------
 Unable to Open any file for archive entry.
 1\1\GINC-GADI-CPU-CLX-1816\Freq\RwB97XD\Gen\C2Cl3F3\PK8622\30-Jul-2020
 \1\\#N Geom=AllCheck Guess=TCheck SCRF=Check GenChk RwB97XD/ChkBas Fre
 q\\CFC-113 - Cl2FC-CClF2 HARMONIC FREQUENCIES\\0,1\C\C,1,r2\Cl,1,r3,2,
 a3\F,1,r4,2,a4,3,d4,0\F,1,r5,2,a5,3,d5,0\Cl,2,r6,1,a6,3,d6,0\Cl,2,r7,1
 ,a7,3,d7,0\F,2,r8,1,a8,3,d8,0\\r2=1.56292415\r3=1.76592639\a3=113.3509
 8376\r4=1.33485861\a4=108.26626648\d4=238.39244838\r5=1.33485861\a5=10
 8.26626652\d5=121.60755176\r6=1.76925099\a6=110.85426734\d6=62.0725969
 4\r7=1.76925099\a7=110.85426732\d7=297.92740312\r8=1.34300162\a8=106.3
 2077903\d8=180.00000001\\Version=ES64L-G16RevC.01\State=1-A'\HF=-1756.
 159469\RMSD=2.879e-09\RMSF=3.261e-06\ZeroPoint=0.0240062\Thermal=0.031
 8628\ETot=-1756.1276063\HTot=-1756.1266621\GTot=-1756.1693283\Dipole=0
 .2914076,0.,0.0777495\DipoleDeriv=1.6607258,0.,-0.280584,0.,1.1054443,
 0.,0.1191385,0.,1.1101468,1.1261105,0.,0.2582487,0.,1.5468069,0.,-0.13
 94065,0.,0.6091612,-0.4925047,0.,0.2125784,0.,-0.0394523,0.,0.247763,0
 .,-0.2380944,-0.5535533,0.3100264,-0.0743606,0.3462412,-0.6053338,0.11
 33183,-0.1565372,0.2269759,-0.4192014,-0.5535533,-0.3100264,-0.0743606
 ,-0.3462412,-0.6053337,-0.1133183,-0.1565372,-0.2269759,-0.4192014,-0.
 1070793,-0.1759764,-0.0601442,-0.164295,-0.5423041,-0.1337929,-0.08012
 94,-0.1960106,-0.154536,-0.1070793,0.1759764,-0.0601442,0.164295,-0.54
 23041,0.1337929,-0.0801294,0.1960105,-0.154536,-0.9730663,0.,0.0787664
 ,0.,-0.3175232,0.,0.2458382,0.,-0.3337389\Polar=66.198741,0.,72.759111
 1,-1.7416867,0.,68.2930355\Quadrupole=-0.1841013,0.5029454,-0.3188441,
 0.,-0.1820448,0.\PG=CS [SG(C2Cl1F1),X(Cl2F2)]\NImag=0\\0.43644772,0.,0
 .49851517,0.03745978,0.,0.48070519,-0.03640700,0.,0.01138404,0.4200421
 2,0.,-0.03900684,0.,0.,0.33385993,-0.01188397,0.,-0.17018032,-0.026325
 45,0.,0.42049445,-0.09943402,0.,0.04784558,-0.01716949,0.,0.00227367,0
 .20072679,0.,-0.03291864,0.,0.,0.00145759,0.,0.,0.04029296,0.03708200,
 0.,-0.06928480,0.02631407,0.,-0.00495823,-0.06920729,0.,0.06873153,-0.
 12949094,0.09545141,-0.05262343,-0.00813250,0.01523806,-0.00476247,-0.
 04371735,0.03109228,0.00025869,0.15494487,0.08482277,-0.19757423,0.072
 80658,0.01406569,-0.01925548,0.01017408,0.02678979,-0.00511097,-0.0035
 2159,-0.13126910,0.29925393,-0.04034903,0.06008985,-0.10807893,-0.0225
 7512,0.03503215,-0.01524950,0.00662706,-0.00599541,0.00981032,0.054697
 58,-0.08630993,0.10554996,-0.12949094,-0.09545140,-0.05262343,-0.00813
 250,-0.01523807,-0.00476247,-0.04371735,-0.03109228,0.00025869,0.01965
 857,0.00779602,0.00513111,0.15494487,-0.08482277,-0.19757423,-0.072806
 58,-0.01406569,-0.01925548,-0.01017408,-0.02678979,-0.00511097,0.00352
 159,-0.00779602,-0.08364758,-0.00542207,0.13126910,0.29925393,-0.04034
 904,-0.06008985,-0.10807894,-0.02257512,-0.03503215,-0.01524949,0.0066
 2706,0.00599541,0.00981031,0.00513111,0.00542207,0.01588834,0.05469758
 ,0.08630993,0.10554996,-0.00301015,-0.00777958,-0.00186079,-0.04308417
 ,-0.02711213,-0.01999809,0.00154356,0.00158988,0.00107486,0.00038157,-
 0.00086274,-0.00125444,0.00034065,-0.00020198,-0.00143280,0.07608500,-
 0.00849468,-0.01605842,-0.00223726,-0.02861638,-0.09860532,-0.04344423
 ,0.00118719,0.00042175,-0.00199854,-0.00011664,0.00338415,-0.00031533,
 -0.00006520,0.00045402,-0.00323897,0.06699652,0.16294145,-0.01253520,-
 0.02461631,-0.00482562,-0.01335283,-0.03031318,-0.06061151,0.00118473,
 -0.00192780,-0.00384439,-0.00100030,-0.00048684,-0.00219444,-0.0019209
 1,-0.00255223,-0.00648616,0.02948133,0.05528987,0.06228181,-0.00301015
 ,0.00777958,-0.00186079,-0.04308417,0.02711213,-0.01999809,0.00154356,
 -0.00158988,0.00107486,0.00034065,0.00020198,-0.00143280,0.00038157,0.
 00086274,-0.00125443,0.00672677,-0.00202317,0.00151912,0.07608500,0.00
 849468,-0.01605842,0.00223726,0.02861638,-0.09860532,0.04344424,-0.001
 18719,0.00042175,0.00199854,0.00006520,0.00045402,0.00323897,0.0001166
 4,0.00338415,0.00031533,0.00202317,-0.04418544,0.00296043,-0.06699652,
 0.16294145,-0.01253520,0.02461631,-0.00482562,-0.01335283,0.03031318,-
 0.06061151,0.00118473,0.00192781,-0.00384439,-0.00192091,0.00255223,-0
 .00648616,-0.00100030,0.00048684,-0.00219444,0.00151912,-0.00296043,0.
 00648643,0.02948133,-0.05528987,0.06228181,-0.03560452,0.,0.01227905,-
 0.26403230,0.,0.08545687,0.00022428,0.,0.00314413,0.00601512,-0.001544
 42,-0.00084436,0.00601512,0.00154442,-0.00084436,-0.03898324,-0.028867
 64,-0.00337595,-0.03898324,0.02886764,-0.00337595,0.36534877,0.,0.0006
 7559,0.,0.,-0.06058909,0.,0.,0.00054653,0.,-0.00266519,0.00249616,-0.0
 0031823,0.00266519,0.00249616,0.00031823,-0.03465315,-0.00835221,0.001
 64606,0.03465315,-0.00835220,-0.00164606,0.,0.07107906,0.04311067,0.,-
 0.01543096,0.06048323,0.,-0.09363388,0.00346447,0.,-0.00642034,0.00021
 973,-0.00063659,0.00076042,0.00021972,0.00063659,0.00076042,-0.0075292
 0,-0.00109512,0.00919388,-0.00752919,0.00109512,0.00919388,-0.09243943
 ,0.,0.09557658\\-0.00001128,0.,0.00000021,0.00001131,0.,-0.00000012,0.
 00000005,0.,0.,-0.00000002,0.00000007,-0.00000005,-0.00000002,-0.00000
 007,-0.00000005,-0.00000002,-0.00000004,0.,-0.00000002,0.00000004,0.,-
 0.00000001,0.,0.00000001\\\@
 The archive entry for this job was punched.


 I KNOW YOU BELIEVE YOU UNDERSTAND WHAT YOU THINK I SAID,
 BUT I AM NOT SURE YOU REALIZE THAT WHAT YOU HEARD IS NOT WHAT I MEANT.
 Job cpu time:       0 days  0 hours 11 minutes 53.0 seconds.
 Elapsed time:       0 days  0 hours 11 minutes 53.3 seconds.
 File lengths (MBytes):  RWF=     44 Int=      0 D2E=      0 Chk=      4 Scr=      1
 Normal termination of Gaussian 16 at Thu Jul 30 13:18:34 2020.
