 Entering Gaussian System, Link 0=g16
 Input=CFC-13.gjf
 Output=CFC-13.log
 Initial command:
 /apps/gaussian/g16c01/g16/l1.exe "/jobfs/9171156.gadi-pbs/Gau-1978126.inp" -scrdir="/jobfs/9171156.gadi-pbs/"
 Entering Link 1 = /apps/gaussian/g16c01/g16/l1.exe PID=   1978127.
  
 Copyright (c) 1988-2019, Gaussian, Inc.  All Rights Reserved.
  
 This is part of the Gaussian(R) 16 program.  It is based on
 the Gaussian(R) 09 system (copyright 2009, Gaussian, Inc.),
 the Gaussian(R) 03 system (copyright 2003, Gaussian, Inc.),
 the Gaussian(R) 98 system (copyright 1998, Gaussian, Inc.),
 the Gaussian(R) 94 system (copyright 1995, Gaussian, Inc.),
 the Gaussian 92(TM) system (copyright 1992, Gaussian, Inc.),
 the Gaussian 90(TM) system (copyright 1990, Gaussian, Inc.),
 the Gaussian 88(TM) system (copyright 1988, Gaussian, Inc.),
 the Gaussian 86(TM) system (copyright 1986, Carnegie Mellon
 University), and the Gaussian 82(TM) system (copyright 1983,
 Carnegie Mellon University). Gaussian is a federally registered
 trademark of Gaussian, Inc.
  
 This software contains proprietary and confidential information,
 including trade secrets, belonging to Gaussian, Inc.
  
 This software is provided under written license and may be
 used, copied, transmitted, or stored only in accord with that
 written license.
  
 The following legend is applicable only to US Government
 contracts under FAR:
  
                    RESTRICTED RIGHTS LEGEND
  
 Use, reproduction and disclosure by the US Government is
 subject to restrictions as set forth in subparagraphs (a)
 and (c) of the Commercial Computer Software - Restricted
 Rights clause in FAR 52.227-19.
  
 Gaussian, Inc.
 340 Quinnipiac St., Bldg. 40, Wallingford CT 06492
  
  
 ---------------------------------------------------------------
 Warning -- This program may not be used in any manner that
 competes with the business of Gaussian, Inc. or will provide
 assistance to any competitor of Gaussian, Inc.  The licensee
 of this program is prohibited from giving any competitor of
 Gaussian, Inc. access to this program.  By using this program,
 the user acknowledges that Gaussian, Inc. is engaged in the
 business of creating and licensing software in the field of
 computational chemistry and represents and warrants to the
 licensee that it is not a competitor of Gaussian, Inc. and that
 it will not use this program in any manner prohibited above.
 ---------------------------------------------------------------
  

 Cite this work as:
 Gaussian 16, Revision C.01,
 M. J. Frisch, G. W. Trucks, H. B. Schlegel, G. E. Scuseria, 
 M. A. Robb, J. R. Cheeseman, G. Scalmani, V. Barone, 
 G. A. Petersson, H. Nakatsuji, X. Li, M. Caricato, A. V. Marenich, 
 J. Bloino, B. G. Janesko, R. Gomperts, B. Mennucci, H. P. Hratchian, 
 J. V. Ortiz, A. F. Izmaylov, J. L. Sonnenberg, D. Williams-Young, 
 F. Ding, F. Lipparini, F. Egidi, J. Goings, B. Peng, A. Petrone, 
 T. Henderson, D. Ranasinghe, V. G. Zakrzewski, J. Gao, N. Rega, 
 G. Zheng, W. Liang, M. Hada, M. Ehara, K. Toyota, R. Fukuda, 
 J. Hasegawa, M. Ishida, T. Nakajima, Y. Honda, O. Kitao, H. Nakai, 
 T. Vreven, K. Throssell, J. A. Montgomery, Jr., J. E. Peralta, 
 F. Ogliaro, M. J. Bearpark, J. J. Heyd, E. N. Brothers, K. N. Kudin, 
 V. N. Staroverov, T. A. Keith, R. Kobayashi, J. Normand, 
 K. Raghavachari, A. P. Rendell, J. C. Burant, S. S. Iyengar, 
 J. Tomasi, M. Cossi, J. M. Millam, M. Klene, C. Adamo, R. Cammi, 
 J. W. Ochterski, R. L. Martin, K. Morokuma, O. Farkas, 
 J. B. Foresman, and D. J. Fox, Gaussian, Inc., Wallingford CT, 2019.
 
 ******************************************
 Gaussian 16:  ES64L-G16RevC.01  3-Jul-2019
                30-Jul-2020 
 ******************************************
 %NprocShared=4
 Will use up to    4 processors via shared memory.
 %chk=checkpoint.chk
 ---------------------------------------------------------------
 # wB97xD/Gen Freq Opt=(VeryTight,ZMatrix,CalcAll) Int=UltraFine
 ---------------------------------------------------------------
 1/7=1,10=4,18=40,26=4,38=1/1,3;
 2/12=2,17=6,18=5,29=3,40=1/2;
 3/5=7,11=2,25=1,30=1,71=2,74=-58,75=-5,140=1/1,2,3;
 4//1;
 5/5=2,38=5/2;
 8/6=4,10=90,11=11/1;
 11/6=1,8=1,9=11,15=111,16=1/1,2,10;
 10/6=1/2;
 6/7=2,8=2,9=2,10=2,18=1,28=1/1;
 7/10=1,25=1/1,2,3,16;
 1/7=1,10=4,18=40,26=4/3(3);
 2/29=3/2;
 7/8=1,9=1,25=1,44=-1/16;
 99//99;
 2/29=3/2;
 3/5=7,6=1,11=2,25=1,30=1,71=2,74=-58,75=-5,82=7,140=1/1,2,3;
 4/5=5,16=3,69=1/1;
 5/5=2,38=5/2;
 8/6=4,10=90,11=11/1;
 11/6=1,8=1,9=11,15=111,16=1/1,2,10;
 10/6=1/2;
 7/10=1,25=1/1,2,3,16;
 1/7=1,10=4,18=40,26=4/3(-8);
 2/29=3/2;
 6/7=2,8=2,9=2,10=2,18=1,19=2,28=1/1;
 7/8=1,9=1,25=1,44=-1/16;
 99//99;
 -----------------------------------
 CFC-13 - CClF3 HARMONIC FREQUENCIES
 -----------------------------------
 Symbolic Z-matrix:
 Charge =  0 Multiplicity = 1
 C
 F                    1    r2
 F                    1    r3       2    a3
 F                    1    r4       2    a4       3    d4       0
 Cl                   1    r5       2    a5       3    d5       0
       Variables:
  r2                    1.3524                   
  r3                    1.3524                   
  a3                  107.8                      
  r4                    1.3524                   
  a4                  107.8                      
  d4                  243.88                     
  r5                    1.7547                   
  a5                  111.1                      
  d5                  121.94                     
 

 GradGradGradGradGradGradGradGradGradGradGradGradGradGradGradGradGradGrad
 Berny optimization.
 Initialization pass.
                       ----------------------------
                       !    Initial Parameters    !
                       ! (Angstroms and Degrees)  !
 ----------------------                            ----------------------
 !      Name          Value   Derivative information (Atomic Units)     !
 ------------------------------------------------------------------------
 !       r2          1.3524   calculate D2E/DX2 analytically            !
 !       r3          1.3524   calculate D2E/DX2 analytically            !
 !       a3        107.8      calculate D2E/DX2 analytically            !
 !       r4          1.3524   calculate D2E/DX2 analytically            !
 !       a4        107.8      calculate D2E/DX2 analytically            !
 !       d4        243.88     calculate D2E/DX2 analytically            !
 !       r5          1.7547   calculate D2E/DX2 analytically            !
 !       a5        111.1      calculate D2E/DX2 analytically            !
 !       d5        121.94     calculate D2E/DX2 analytically            !
 ------------------------------------------------------------------------
 Trust Radius=3.00D-01 FncErr=1.00D-07 GrdErr=1.00D-06 EigMax=2.50D+02 EigMin=1.00D-04
 Number of steps in this run=     20 maximum allowed number of steps=    100.
 GradGradGradGradGradGradGradGradGradGradGradGradGradGradGradGradGradGrad

 ---------------------------------------------------------------------------------------------------
                            Z-MATRIX (ANGSTROMS AND DEGREES)
   CD    Cent   Atom    N1       Length/X        N2       Alpha/Y        N3        Beta/Z          J
 ---------------------------------------------------------------------------------------------------
      1      1  C 
      2      2  F        1   1.352400(     1)
      3      3  F        1   1.352400(     2)      2  107.800(     5)
      4      4  F        1   1.352400(     3)      2  107.800(     6)      3  243.880(     8)      0
      5      5  Cl       1   1.754700(     4)      2  111.100(     7)      3  121.940(     9)      0
 ---------------------------------------------------------------------------------------------------
                         Z-Matrix orientation:                         
 ---------------------------------------------------------------------
 Center     Atomic      Atomic             Coordinates (Angstroms)
 Number     Number       Type             X           Y           Z
 ---------------------------------------------------------------------
      1          6           0        0.000000    0.000000    0.000000
      2          9           0        0.000000    0.000000    1.352400
      3          9           0        1.287660    0.000000   -0.413422
      4          9           0       -0.566896    1.156156   -0.413422
      5         17           0       -0.866052   -1.389208   -0.631686
 ---------------------------------------------------------------------
                    Distance matrix (angstroms):
                    1          2          3          4          5
     1  C    0.000000
     2  F    1.352400   0.000000
     3  F    1.352400   2.185451   0.000000
     4  F    1.352400   2.185451   2.185423   0.000000
     5  Cl   1.754700   2.572264   2.572161   2.572161   0.000000
 Stoichiometry    CClF3
 Framework group  CS[SG(CClF),X(F2)]
 Deg. of freedom     6
 Full point group                 CS      NOp   2
 Largest Abelian subgroup         CS      NOp   2
 Largest concise Abelian subgroup CS      NOp   2
                         Standard orientation:                         
 ---------------------------------------------------------------------
 Center     Atomic      Atomic             Coordinates (Angstroms)
 Number     Number       Type             X           Y           Z
 ---------------------------------------------------------------------
      1          6           0        0.333748    0.000054   -0.000000
      2          9           0        0.820507    1.261819   -0.000000
      3          9           0        0.820507   -0.630845    1.092711
      4          9           0        0.820507   -0.630845   -1.092711
      5         17           0       -1.420952   -0.000087    0.000000
 ---------------------------------------------------------------------
 Rotational constants (GHZ):           5.5695702           3.2464552           3.2464226
 General basis read from cards:  (5D, 7F)
 There are    82 symmetry adapted cartesian basis functions of A'  symmetry.
 There are    47 symmetry adapted cartesian basis functions of A"  symmetry.
 There are    74 symmetry adapted basis functions of A'  symmetry.
 There are    45 symmetry adapted basis functions of A"  symmetry.
   119 basis functions,   235 primitive gaussians,   129 cartesian basis functions
    25 alpha electrons       25 beta electrons
       nuclear repulsion energy       247.4187998908 Hartrees.
 NAtoms=    5 NActive=    5 NUniq=    4 SFac= 1.56D+00 NAtFMM=   60 NAOKFM=F Big=F
 Integral buffers will be    131072 words long.
 Raffenetti 2 integral format.
 Two-electron integral symmetry is turned on.
 Nuclear repulsion after empirical dispersion term =      247.4183416420 Hartrees.
 One-electron integrals computed using PRISM.
 NBasis=   119 RedAO= T EigKep=  1.34D-03  NBF=    74    45
 NBsUse=   119 1.00D-06 EigRej= -1.00D+00 NBFU=    74    45
 ExpMin= 3.35D-02 ExpMax= 6.35D+04 ExpMxC= 2.17D+03 IAcc=3 IRadAn=         5 AccDes= 0.00D+00
 Harris functional with IExCor= 4639 and IRadAn=       5 diagonalized for initial guess.
 HarFok:  IExCor= 4639 AccDes= 0.00D+00 IRadAn=         5 IDoV= 1 UseB2=F ITyADJ=14
 ICtDFT=  3500011 ScaDFX=  1.000000  1.000000  1.000000  1.000000
 FoFCou: FMM=F IPFlag=           0 FMFlag=      100000 FMFlg1=           0
         NFxFlg=           0 DoJE=T BraDBF=F KetDBF=T FulRan=T
         wScrn=  0.000000 ICntrl=       500 IOpCl=  0 I1Cent=   200000004 NGrid=           0
         NMat0=    1 NMatS0=      1 NMatT0=    0 NMatD0=    1 NMtDS0=    0 NMtDT0=    0
 Petite list used in FoFCou.
 Initial guess orbital symmetries:
       Occupied  (A') (A') (A') (A") (A') (A') (A') (A') (A") (A')
                 (A') (A") (A') (A') (A') (A") (A') (A') (A") (A')
                 (A") (A') (A") (A') (A")
       Virtual   (A') (A') (A") (A') (A') (A') (A") (A") (A') (A')
                 (A') (A") (A') (A') (A") (A") (A') (A') (A") (A')
                 (A') (A") (A') (A') (A") (A') (A') (A') (A") (A')
                 (A") (A') (A') (A") (A") (A') (A') (A') (A") (A")
                 (A') (A') (A") (A') (A") (A') (A") (A") (A') (A')
                 (A') (A") (A') (A") (A') (A') (A") (A') (A') (A")
                 (A') (A') (A") (A') (A") (A") (A') (A') (A") (A')
                 (A') (A') (A") (A') (A") (A') (A') (A") (A") (A")
                 (A") (A') (A') (A") (A') (A") (A') (A') (A') (A")
                 (A') (A') (A') (A")
 The electronic state of the initial guess is 1-A'.
 Keep R1 ints in memory in symmetry-blocked form, NReq=76615628.
 Requested convergence on RMS density matrix=1.00D-08 within 128 cycles.
 Requested convergence on MAX density matrix=1.00D-06.
 Requested convergence on             energy=1.00D-06.
 No special actions if energy rises.
 SCF Done:  E(RwB97XD) =  -797.689288975     A.U. after   11 cycles
            NFock= 11  Conv=0.55D-08     -V/T= 2.0018
 DoSCS=F DFT=T ScalE2(SS,OS)=  1.000000  1.000000
 Range of M.O.s used for correlation:     1   119
 NBasis=   119 NAE=    25 NBE=    25 NFC=     0 NFV=     0
 NROrb=    119 NOA=    25 NOB=    25 NVA=    94 NVB=    94
 Symmetrizing basis deriv contribution to polar:
 IMax=3 JMax=2 DiffMx= 0.00D+00
 G2DrvN: will do     6 centers at a time, making    1 passes.
 Calling FoFCou, ICntrl=  3107 FMM=F I1Cent=   0 AccDes= 0.00D+00.
 End of G2Drv F.D. properties file   721 does not exist.
 End of G2Drv F.D. properties file   722 does not exist.
 End of G2Drv F.D. properties file   788 does not exist.
          IDoAtm=11111
          Differentiating once with respect to electric field.
                with respect to dipole field.
          Differentiating once with respect to nuclear coordinates.
 Keep R1 ints in memory in symmetry-blocked form, NReq=76618147.
          There are    15 degrees of freedom in the 1st order CPHF.  IDoFFX=4 NUNeed=    15.
     15 vectors produced by pass  0 Test12= 1.57D-14 6.67D-09 XBig12= 1.38D+01 2.09D+00.
 AX will form    15 AO Fock derivatives at one time.
     15 vectors produced by pass  1 Test12= 1.57D-14 6.67D-09 XBig12= 1.72D+00 3.04D-01.
     15 vectors produced by pass  2 Test12= 1.57D-14 6.67D-09 XBig12= 1.61D-01 9.68D-02.
     15 vectors produced by pass  3 Test12= 1.57D-14 6.67D-09 XBig12= 3.94D-03 1.48D-02.
     15 vectors produced by pass  4 Test12= 1.57D-14 6.67D-09 XBig12= 5.36D-05 1.74D-03.
     15 vectors produced by pass  5 Test12= 1.57D-14 6.67D-09 XBig12= 3.27D-07 1.50D-04.
     15 vectors produced by pass  6 Test12= 1.57D-14 6.67D-09 XBig12= 2.01D-09 1.14D-05.
      4 vectors produced by pass  7 Test12= 1.57D-14 6.67D-09 XBig12= 1.35D-11 7.41D-07.
      3 vectors produced by pass  8 Test12= 1.57D-14 6.67D-09 XBig12= 8.04D-14 6.11D-08.
 InvSVY:  IOpt=1 It=  1 EMax= 2.22D-15
 Solved reduced A of dimension   112 with    15 vectors.
 Isotropic polarizability for W=    0.000000       32.08 Bohr**3.
 End of Minotr F.D. properties file   721 does not exist.
 End of Minotr F.D. properties file   722 does not exist.
 End of Minotr F.D. properties file   788 does not exist.

 **********************************************************************

            Population analysis using the SCF Density.

 **********************************************************************

 Orbital symmetries:
       Occupied  (A') (A') (A') (A") (A') (A') (A') (A') (A") (A')
                 (A') (A") (A') (A') (A') (A") (A') (A") (A') (A')
                 (A") (A") (A') (A') (A")
       Virtual   (A') (A') (A') (A') (A") (A') (A") (A') (A') (A")
                 (A") (A') (A') (A') (A") (A') (A') (A') (A") (A")
                 (A') (A") (A') (A") (A') (A') (A') (A') (A") (A')
                 (A') (A") (A') (A") (A") (A') (A') (A') (A") (A')
                 (A") (A") (A') (A') (A") (A') (A") (A') (A") (A')
                 (A') (A") (A") (A') (A') (A") (A') (A') (A') (A")
                 (A') (A') (A") (A') (A") (A") (A') (A') (A") (A')
                 (A') (A") (A') (A') (A") (A') (A') (A") (A") (A")
                 (A') (A") (A') (A") (A') (A") (A') (A') (A') (A")
                 (A') (A') (A') (A")
 The electronic state is 1-A'.
 Alpha  occ. eigenvalues -- -101.72898 -24.87655 -24.87651 -24.87650 -10.62560
 Alpha  occ. eigenvalues --   -9.62967  -7.37745  -7.36592  -7.36592  -1.45938
 Alpha  occ. eigenvalues --   -1.37093  -1.37092  -1.01309  -0.82451  -0.72593
 Alpha  occ. eigenvalues --   -0.72593  -0.69160  -0.59555  -0.59555  -0.56007
 Alpha  occ. eigenvalues --   -0.56007  -0.53536  -0.52647  -0.44981  -0.44981
 Alpha virt. eigenvalues --    0.04516   0.07402   0.07760   0.08058   0.08059
 Alpha virt. eigenvalues --    0.12605   0.12606   0.12892   0.16773   0.16773
 Alpha virt. eigenvalues --    0.19590   0.19590   0.23306   0.23718   0.23719
 Alpha virt. eigenvalues --    0.25436   0.26441   0.26826   0.26826   0.28197
 Alpha virt. eigenvalues --    0.30063   0.30063   0.31552   0.38948   0.38948
 Alpha virt. eigenvalues --    0.39558   0.40839   0.42085   0.42842   0.42843
 Alpha virt. eigenvalues --    0.51083   0.51086   0.52283   0.52284   0.65030
 Alpha virt. eigenvalues --    0.65031   0.65986   0.74977   0.74978   0.78294
 Alpha virt. eigenvalues --    0.79080   0.80061   0.80063   0.80426   0.82608
 Alpha virt. eigenvalues --    0.82609   0.84151   0.85410   0.86418   0.86420
 Alpha virt. eigenvalues --    0.96594   0.96597   0.98073   0.98073   0.98824
 Alpha virt. eigenvalues --    1.05531   1.05532   1.13409   1.18537   1.18539
 Alpha virt. eigenvalues --    1.37177   1.44011   1.44011   1.50072   1.69071
 Alpha virt. eigenvalues --    1.70927   1.70928   1.80754   1.96391   1.96391
 Alpha virt. eigenvalues --    2.03142   2.03892   2.03893   2.11505   2.11505
 Alpha virt. eigenvalues --    2.21417   2.69195   2.69198   2.72565   2.80757
 Alpha virt. eigenvalues --    2.82623   2.82623   2.83972   2.83973   2.84415
 Alpha virt. eigenvalues --    2.90371   2.90374   2.93384   3.10431   3.26594
 Alpha virt. eigenvalues --    3.26595   3.52304   3.60365   3.60368
          Condensed to atoms (all electrons):
               1          2          3          4          5
     1  C    3.998847  -0.190697  -0.190711  -0.190711   0.369648
     2  F   -0.190697  10.071101  -0.098846  -0.098846  -0.111766
     3  F   -0.190711  -0.098846  10.071128  -0.098826  -0.111772
     4  F   -0.190711  -0.098846  -0.098826  10.071128  -0.111772
     5  Cl   0.369648  -0.111766  -0.111772  -0.111772  17.456395
 Mulliken charges:
               1
     1  C    2.203625
     2  F   -0.570945
     3  F   -0.570973
     4  F   -0.570973
     5  Cl  -0.490733
 Sum of Mulliken charges =  -0.00000
 Mulliken charges with hydrogens summed into heavy atoms:
               1
     1  C    2.203625
     2  F   -0.570945
     3  F   -0.570973
     4  F   -0.570973
     5  Cl  -0.490733
 APT charges:
               1
     1  C    1.878608
     2  F   -0.544045
     3  F   -0.544169
     4  F   -0.544169
     5  Cl  -0.246225
 Sum of APT charges =  -0.00000
 APT charges with hydrogens summed into heavy atoms:
               1
     1  C    1.878608
     2  F   -0.544045
     3  F   -0.544169
     4  F   -0.544169
     5  Cl  -0.246225
 Electronic spatial extent (au):  <R**2>=            417.1903
 Charge=             -0.0000 electrons
 Dipole moment (field-independent basis, Debye):
    X=             -0.6789    Y=              0.0002    Z=              0.0000  Tot=              0.6789
 Quadrupole moment (field-independent basis, Debye-Ang):
   XX=            -31.6879   YY=            -33.7959   ZZ=            -33.7958
   XY=              0.0003   XZ=              0.0000   YZ=              0.0000
 Traceless Quadrupole moment (field-independent basis, Debye-Ang):
   XX=              1.4053   YY=             -0.7027   ZZ=             -0.7026
   XY=              0.0003   XZ=              0.0000   YZ=              0.0000
 Octapole moment (field-independent basis, Debye-Ang**2):
  XXX=              4.9569  YYY=             -0.5577  ZZZ=              0.0000  XYY=              3.6253
  XXY=             -0.0006  XXZ=             -0.0000  XZZ=              3.6254  YZZ=              0.5585
  YYZ=             -0.0000  XYZ=              0.0000
 Hexadecapole moment (field-independent basis, Debye-Ang**3):
 XXXX=           -220.0428 YYYY=            -98.6982 ZZZZ=            -98.6957 XXXY=             -0.0042
 XXXZ=              0.0000 YYYX=              0.1789 YYYZ=             -0.0000 ZZZX=              0.0000
 ZZZY=             -0.0000 XXYY=            -57.5380 XXZZ=            -57.5375 YYZZ=            -32.8990
 XXYZ=             -0.0000 YYXZ=              0.0000 ZZXY=             -0.1873
 N-N= 2.474183416420D+02 E-N=-2.392063701878D+03  KE= 7.962262313200D+02
 Symmetry A'   KE= 6.418293704921D+02
 Symmetry A"   KE= 1.543968608279D+02
  Exact polarizability:      37.314       0.003      29.469      -0.000       0.000      29.465
 Approx polarizability:      39.763       0.001      32.594      -0.000       0.000      32.594
 Calling FoFJK, ICntrl=    100127 FMM=F ISym2X=1 I1Cent= 0 IOpClX= 0 NMat=1 NMatS=1 NMatT=0.
 ***** Axes restored to original set *****
 -------------------------------------------------------------------
 Center     Atomic                   Forces (Hartrees/Bohr)
 Number     Number              X              Y              Z
 -------------------------------------------------------------------
      1        6           0.013131110    0.021063219    0.009543775
      2        9          -0.001365605   -0.002190527   -0.022384783
      3        9          -0.021760740   -0.002200144    0.005544090
      4        9           0.007604770   -0.020507021    0.005544090
      5       17           0.002390465    0.003834473    0.001752829
 -------------------------------------------------------------------
 Cartesian Forces:  Max     0.022384783 RMS     0.012265440
 -----------------------------------------------------------------------------------------------
                       Internal Coordinate Forces (Hartree/Bohr or radian)
  Cent   Atom   N1       Length/X         N2         Alpha/Y        N3         Beta/Z          J
 -----------------------------------------------------------------------------------------------
      1  C 
      2  F        1  -0.022385(     1)
      3  F        1  -0.022414(     2)      2   0.003510(     5)
      4  F        1  -0.022414(     3)      2   0.003510(     6)      3  -0.005354(     8)     0
      5  Cl       1  -0.004847(     4)      2  -0.000029(     7)      3  -0.000000(     9)     0
 -----------------------------------------------------------------------------------------------
 Internal  Forces:  Max     0.022413842 RMS     0.013260775

 GradGradGradGradGradGradGradGradGradGradGradGradGradGradGradGradGradGrad
 Berny optimization.
 Search for a local minimum.
 Step number   1 out of a maximum of   20
 All quantities printed in internal units (Hartrees-Bohrs-Radians)
 Second derivative matrix not updated -- analytic derivatives used.
 The second derivative matrix:
                          r2        r3        a3        r4        a4
           r2           0.35080
           r3           0.04972   0.35109
           a3           0.07890   0.00951   0.47248
           r4           0.04972   0.04966  -0.03267   0.35109
           a4           0.07890  -0.03267   0.12471   0.00951   0.47248
           d4          -0.00219  -0.06840   0.07816  -0.01465   0.00582
           r5           0.03522   0.03522  -0.03373   0.03522  -0.03373
           a5           0.06665  -0.03336   0.11658  -0.03336   0.11658
           d5           0.00000   0.05389  -0.07244  -0.05389   0.07244
                          d4        r5        a5        d5
           d4           0.42053
           r5           0.05146   0.23872
           a5          -0.06388   0.00003   0.39681
           d5          -0.17214   0.00000  -0.00000   0.34522
 ITU=  0
     Eigenvalues ---    0.13168   0.19164   0.23960   0.29390   0.33579
     Eigenvalues ---    0.37135   0.46585   0.63028   0.73914
 RFO step:  Lambda=-3.92437995D-03 EMin= 1.31677750D-01
 Linear search not attempted -- first point.
 Variable       Old X    -DE/DX   Delta X   Delta X   Delta X     New X
                                 (Linear)    (Quad)   (Total)
    r2        2.55567  -0.02238   0.00000  -0.05454  -0.05454   2.50112
    r3        2.55567  -0.02241   0.00000  -0.05467  -0.05467   2.50099
    a3        1.88146   0.00351   0.00000   0.01796   0.01796   1.89943
    r4        2.55567  -0.02241   0.00000  -0.05456  -0.05456   2.50111
    a4        1.88146   0.00351   0.00000   0.01783   0.01783   1.89929
    d4        4.25651  -0.00535   0.00000  -0.03967  -0.03967   4.21684
    r5        3.31590  -0.00485   0.00000   0.01719   0.01719   3.33309
    a5        1.93906  -0.00003   0.00000  -0.01683  -0.01683   1.92223
    d5        2.12825  -0.00000   0.00000  -0.01951  -0.01951   2.10874
         Item               Value     Threshold  Converged?
 Maximum Force            0.022414     0.000002     NO 
 RMS     Force            0.013261     0.000001     NO 
 Maximum Displacement     0.054672     0.000006     NO 
 RMS     Displacement     0.036688     0.000004     NO 
 Predicted change in Energy=-1.985957D-03
 GradGradGradGradGradGradGradGradGradGradGradGradGradGradGradGradGradGrad

 ---------------------------------------------------------------------------------------------------
                            Z-MATRIX (ANGSTROMS AND DEGREES)
   CD    Cent   Atom    N1       Length/X        N2       Alpha/Y        N3        Beta/Z          J
 ---------------------------------------------------------------------------------------------------
      1      1  C 
      2      2  F        1   1.323537(     1)
      3      3  F        1   1.323469(     2)      2  108.829(     5)
      4      4  F        1   1.323529(     3)      2  108.821(     6)      3  241.607(     8)      0
      5      5  Cl       1   1.763795(     4)      2  110.136(     7)      3  120.822(     9)      0
 ---------------------------------------------------------------------------------------------------
                         Z-Matrix orientation:                         
 ---------------------------------------------------------------------
 Center     Atomic      Atomic             Coordinates (Angstroms)
 Number     Number       Type             X           Y           Z
 ---------------------------------------------------------------------
      1          6           0        0.000000    0.000000    0.000000
      2          9           0        0.000000    0.000000    1.323537
      3          9           0        1.252644    0.000000   -0.427145
      4          9           0       -0.595707    1.102060   -0.426995
      5         17           0       -0.848483   -1.422106   -0.607177
 ---------------------------------------------------------------------
                    Distance matrix (angstroms):
                    1          2          3          4          5
     1  C    0.000000
     2  F    1.323537   0.000000
     3  F    1.323469   2.152674   0.000000
     4  F    1.323529   2.152619   2.151962   0.000000
     5  Cl   1.763795   2.543613   2.543528   2.543182   0.000000
 Stoichiometry    CClF3
 Framework group  C1[X(CClF3)]
 Deg. of freedom     9
 Full point group                 C1      NOp   1
 Omega: Change in point group or standard orientation.

 Old FWG=CS   [SG(C1Cl1F1),X(F2)]
 New FWG=C01  [X(C1Cl1F3)]
 Largest Abelian subgroup         C1      NOp   1
 Largest concise Abelian subgroup C1      NOp   1
                         Standard orientation:                         
 ---------------------------------------------------------------------
 Center     Atomic      Atomic             Coordinates (Angstroms)
 Number     Number       Type             X           Y           Z
 ---------------------------------------------------------------------
      1          6           0        0.353779    0.000206    0.000082
      2          9           0        0.809274    1.242151    0.043048
      3          9           0        0.809443   -0.658569    1.053626
      4          9           0        0.808794   -0.583768   -1.097035
      5         17           0       -1.410016    0.000025    0.000162
 ---------------------------------------------------------------------
 Rotational constants (GHZ):           5.7417833           3.3178212           3.3170062
 Basis read from rwf:  (5D, 7F)
 There are   129 symmetry adapted cartesian basis functions of A   symmetry.
 There are   119 symmetry adapted basis functions of A   symmetry.
   119 basis functions,   235 primitive gaussians,   129 cartesian basis functions
    25 alpha electrons       25 beta electrons
       nuclear repulsion energy       250.6140573953 Hartrees.
 NAtoms=    5 NActive=    5 NUniq=    5 SFac= 1.00D+00 NAtFMM=   60 NAOKFM=F Big=F
 Integral buffers will be    131072 words long.
 Raffenetti 2 integral format.
 Two-electron integral symmetry is turned on.
 Nuclear repulsion after empirical dispersion term =      250.6136310257 Hartrees.
 One-electron integrals computed using PRISM.
 NBasis=   119 RedAO= T EigKep=  1.35D-03  NBF=   119
 NBsUse=   119 1.00D-06 EigRej= -1.00D+00 NBFU=   119
 Initial guess from the checkpoint file:  "checkpoint.chk"
 B after Tr=    -0.000000    0.000000    0.000000
         Rot=    0.999849   -0.017375   -0.000087    0.000044 Ang=  -1.99 deg.
 ExpMin= 3.35D-02 ExpMax= 6.35D+04 ExpMxC= 2.17D+03 IAcc=3 IRadAn=         5 AccDes= 0.00D+00
 Harris functional with IExCor= 4639 and IRadAn=       5 diagonalized for initial guess.
 HarFok:  IExCor= 4639 AccDes= 0.00D+00 IRadAn=         5 IDoV= 1 UseB2=F ITyADJ=14
 ICtDFT=  3500011 ScaDFX=  1.000000  1.000000  1.000000  1.000000
 FoFCou: FMM=F IPFlag=           0 FMFlag=      100000 FMFlg1=           0
         NFxFlg=           0 DoJE=T BraDBF=F KetDBF=T FulRan=T
         wScrn=  0.000000 ICntrl=       500 IOpCl=  0 I1Cent=   200000004 NGrid=           0
         NMat0=    1 NMatS0=      1 NMatT0=    0 NMatD0=    1 NMtDS0=    0 NMtDT0=    0
 Petite list used in FoFCou.
 Keep R1 ints in memory in canonical form, NReq=55674054.
 Requested convergence on RMS density matrix=1.00D-08 within 128 cycles.
 Requested convergence on MAX density matrix=1.00D-06.
 Requested convergence on             energy=1.00D-06.
 No special actions if energy rises.
 SCF Done:  E(RwB97XD) =  -797.691152851     A.U. after   10 cycles
            NFock= 10  Conv=0.37D-08     -V/T= 2.0016
 DoSCS=F DFT=T ScalE2(SS,OS)=  1.000000  1.000000
 Range of M.O.s used for correlation:     1   119
 NBasis=   119 NAE=    25 NBE=    25 NFC=     0 NFV=     0
 NROrb=    119 NOA=    25 NOB=    25 NVA=    94 NVB=    94
 Symmetrizing basis deriv contribution to polar:
 IMax=3 JMax=2 DiffMx= 0.00D+00
 G2DrvN: will do     6 centers at a time, making    1 passes.
 Calling FoFCou, ICntrl=  3107 FMM=F I1Cent=   0 AccDes= 0.00D+00.
 End of G2Drv F.D. properties file   721 does not exist.
 End of G2Drv F.D. properties file   722 does not exist.
 End of G2Drv F.D. properties file   788 does not exist.
          IDoAtm=11111
          Differentiating once with respect to electric field.
                with respect to dipole field.
          Differentiating once with respect to nuclear coordinates.
 Keep R1 ints in memory in canonical form, NReq=55664968.
          There are    18 degrees of freedom in the 1st order CPHF.  IDoFFX=6 NUNeed=     3.
     15 vectors produced by pass  0 Test12= 1.31D-14 5.56D-09 XBig12= 1.35D+01 2.11D+00.
 AX will form    15 AO Fock derivatives at one time.
     15 vectors produced by pass  1 Test12= 1.31D-14 5.56D-09 XBig12= 1.68D+00 3.19D-01.
     15 vectors produced by pass  2 Test12= 1.31D-14 5.56D-09 XBig12= 1.40D-01 7.72D-02.
     15 vectors produced by pass  3 Test12= 1.31D-14 5.56D-09 XBig12= 3.79D-03 1.41D-02.
     15 vectors produced by pass  4 Test12= 1.31D-14 5.56D-09 XBig12= 4.25D-05 1.68D-03.
     15 vectors produced by pass  5 Test12= 1.31D-14 5.56D-09 XBig12= 2.75D-07 1.66D-04.
     15 vectors produced by pass  6 Test12= 1.31D-14 5.56D-09 XBig12= 1.67D-09 1.30D-05.
      4 vectors produced by pass  7 Test12= 1.31D-14 5.56D-09 XBig12= 1.30D-11 7.67D-07.
      3 vectors produced by pass  8 Test12= 1.31D-14 5.56D-09 XBig12= 7.58D-14 4.96D-08.
 InvSVY:  IOpt=1 It=  1 EMax= 1.22D-15
 Solved reduced A of dimension   112 with    15 vectors.
 Isotropic polarizability for W=    0.000000       31.66 Bohr**3.
 End of Minotr F.D. properties file   721 does not exist.
 End of Minotr F.D. properties file   722 does not exist.
 End of Minotr F.D. properties file   788 does not exist.
 Calling FoFJK, ICntrl=    100127 FMM=F ISym2X=0 I1Cent= 0 IOpClX= 0 NMat=1 NMatS=1 NMatT=0.
 ***** Axes restored to original set *****
 -------------------------------------------------------------------
 Center     Atomic                   Forces (Hartrees/Bohr)
 Number     Number              X              Y              Z
 -------------------------------------------------------------------
      1        6          -0.000723177   -0.001072820   -0.000591132
      2        9          -0.000018491   -0.000059062    0.002018497
      3        9           0.002012071   -0.000155401   -0.000651716
      4        9          -0.001054265    0.001712968   -0.000639749
      5       17          -0.000216138   -0.000425685   -0.000135900
 -------------------------------------------------------------------
 Cartesian Forces:  Max     0.002018497 RMS     0.001009958
 -----------------------------------------------------------------------------------------------
                       Internal Coordinate Forces (Hartree/Bohr or radian)
  Cent   Atom   N1       Length/X         N2         Alpha/Y        N3         Beta/Z          J
 -----------------------------------------------------------------------------------------------
      1  C 
      2  F        1   0.002018(     1)
      3  F        1   0.002115(     2)      2  -0.000081(     5)
      4  F        1   0.002107(     3)      2  -0.000106(     6)      3  -0.000267(     8)     0
      5  Cl       1   0.000494(     4)      2  -0.000121(     7)      3  -0.000102(     9)     0
 -----------------------------------------------------------------------------------------------
 Internal  Forces:  Max     0.002114735 RMS     0.001217705

 GradGradGradGradGradGradGradGradGradGradGradGradGradGradGradGradGradGrad
 Berny optimization.
 Search for a local minimum.
 Step number   2 out of a maximum of   20
 All quantities printed in internal units (Hartrees-Bohrs-Radians)
 Second derivative matrix not updated -- analytic derivatives used.
 DE= -1.86D-03 DEPred=-1.99D-03 R= 9.39D-01
 TightC=F SS=  1.41D+00  RLast= 1.10D-01 DXNew= 5.0454D-01 3.3019D-01
 Trust test= 9.39D-01 RLast= 1.10D-01 DXMaxT set to 3.30D-01
 The second derivative matrix:
                          r2        r3        a3        r4        a4
           r2           0.42890
           r3           0.05486   0.42924
           a3           0.08556   0.00872   0.50363
           r4           0.05493   0.05496  -0.03825   0.42909
           a4           0.08543  -0.03814   0.13749   0.00892   0.50351
           d4          -0.00279  -0.07272   0.08637  -0.01445   0.01191
           r5           0.03837   0.03837  -0.03636   0.03840  -0.03635
           a5           0.07170  -0.03591   0.12267  -0.03594   0.12272
           d5           0.00002   0.05833  -0.07476  -0.05840   0.07481
                          d4        r5        a5        d5
           d4           0.43980
           r5           0.05770   0.23904
           a5          -0.07105  -0.00007   0.42337
           d5          -0.18596  -0.00008   0.00008   0.37301
 ITU=  1  0
     Eigenvalues ---    0.13516   0.21166   0.27394   0.33838   0.37225
     Eigenvalues ---    0.41720   0.54904   0.67434   0.79763
 RFO step:  Lambda=-3.24061860D-06 EMin= 1.35160518D-01
 Quintic linear search produced a step of -0.06970.
 Variable       Old X    -DE/DX   Delta X   Delta X   Delta X     New X
                                 (Linear)    (Quad)   (Total)
    r2        2.50112   0.00202   0.00380   0.00017   0.00397   2.50509
    r3        2.50099   0.00211   0.00381   0.00022   0.00403   2.50502
    a3        1.89943  -0.00008  -0.00125   0.00080  -0.00045   1.89897
    r4        2.50111   0.00211   0.00380   0.00006   0.00386   2.50497
    a4        1.89929  -0.00011  -0.00124   0.00093  -0.00032   1.89898
    d4        4.21684  -0.00027   0.00276  -0.00297  -0.00020   4.21664
    r5        3.33309   0.00049  -0.00120   0.00156   0.00037   3.33346
    a5        1.92223  -0.00012   0.00117  -0.00136  -0.00018   1.92205
    d5        2.10874  -0.00010   0.00136  -0.00189  -0.00053   2.10821
         Item               Value     Threshold  Converged?
 Maximum Force            0.002115     0.000002     NO 
 RMS     Force            0.001218     0.000001     NO 
 Maximum Displacement     0.004030     0.000006     NO 
 RMS     Displacement     0.002302     0.000004     NO 
 Predicted change in Energy=-1.216795D-05
 GradGradGradGradGradGradGradGradGradGradGradGradGradGradGradGradGradGrad

 ---------------------------------------------------------------------------------------------------
                            Z-MATRIX (ANGSTROMS AND DEGREES)
   CD    Cent   Atom    N1       Length/X        N2       Alpha/Y        N3        Beta/Z          J
 ---------------------------------------------------------------------------------------------------
      1      1  C 
      2      2  F        1   1.325637(     1)
      3      3  F        1   1.325602(     2)      2  108.803(     5)
      4      4  F        1   1.325571(     3)      2  108.803(     6)      3  241.595(     8)      0
      5      5  Cl       1   1.763989(     4)      2  110.125(     7)      3  120.792(     9)      0
 ---------------------------------------------------------------------------------------------------
                         Z-Matrix orientation:                         
 ---------------------------------------------------------------------
 Center     Atomic      Atomic             Coordinates (Angstroms)
 Number     Number       Type             X           Y           Z
 ---------------------------------------------------------------------
      1          6           0        0.000000    0.000000    0.000000
      2          9           0        0.000000    0.000000    1.325637
      3          9           0        1.254856    0.000000   -0.427266
      4          9           0       -0.596913    1.103759   -0.427258
      5         17           0       -0.847878   -1.422808   -0.606942
 ---------------------------------------------------------------------
                    Distance matrix (angstroms):
                    1          2          3          4          5
     1  C    0.000000
     2  F    1.325637   0.000000
     3  F    1.325602   2.155767   0.000000
     4  F    1.325571   2.155744   2.155768   0.000000
     5  Cl   1.763989   2.545219   2.545222   2.545351   0.000000
 Stoichiometry    CClF3
 Framework group  C1[X(CClF3)]
 Deg. of freedom     9
 Full point group                 C1      NOp   1
 Largest Abelian subgroup         C1      NOp   1
 Largest concise Abelian subgroup C1      NOp   1
                         Standard orientation:                         
 ---------------------------------------------------------------------
 Center     Atomic      Atomic             Coordinates (Angstroms)
 Number     Number       Type             X           Y           Z
 ---------------------------------------------------------------------
      1          6           0        0.353405   -0.000002   -0.000045
      2          9           0        0.809525    0.603241    1.088699
      3          9           0        0.809522   -1.244470   -0.021839
      4          9           0        0.809787    0.641153   -1.066711
      5         17           0       -1.410584    0.000041   -0.000063
 ---------------------------------------------------------------------
 Rotational constants (GHZ):           5.7239990           3.3124218           3.3123940
 Basis read from rwf:  (5D, 7F)
 There are   129 symmetry adapted cartesian basis functions of A   symmetry.
 There are   119 symmetry adapted basis functions of A   symmetry.
   119 basis functions,   235 primitive gaussians,   129 cartesian basis functions
    25 alpha electrons       25 beta electrons
       nuclear repulsion energy       250.3475102187 Hartrees.
 NAtoms=    5 NActive=    5 NUniq=    5 SFac= 1.00D+00 NAtFMM=   60 NAOKFM=F Big=F
 Integral buffers will be    131072 words long.
 Raffenetti 2 integral format.
 Two-electron integral symmetry is turned on.
 Nuclear repulsion after empirical dispersion term =      250.3470812993 Hartrees.
 One-electron integrals computed using PRISM.
 NBasis=   119 RedAO= T EigKep=  1.35D-03  NBF=   119
 NBsUse=   119 1.00D-06 EigRej= -1.00D+00 NBFU=   119
 Initial guess from the checkpoint file:  "checkpoint.chk"
 B after Tr=     0.000000   -0.000000   -0.000000
         Rot=    0.870285   -0.492549    0.000126    0.000026 Ang= -59.02 deg.
 Keep R1 ints in memory in canonical form, NReq=55674054.
 Requested convergence on RMS density matrix=1.00D-08 within 128 cycles.
 Requested convergence on MAX density matrix=1.00D-06.
 Requested convergence on             energy=1.00D-06.
 No special actions if energy rises.
 SCF Done:  E(RwB97XD) =  -797.691165029     A.U. after    8 cycles
            NFock=  8  Conv=0.54D-08     -V/T= 2.0016
 DoSCS=F DFT=T ScalE2(SS,OS)=  1.000000  1.000000
 Range of M.O.s used for correlation:     1   119
 NBasis=   119 NAE=    25 NBE=    25 NFC=     0 NFV=     0
 NROrb=    119 NOA=    25 NOB=    25 NVA=    94 NVB=    94
 Symmetrizing basis deriv contribution to polar:
 IMax=3 JMax=2 DiffMx= 0.00D+00
 G2DrvN: will do     6 centers at a time, making    1 passes.
 Calling FoFCou, ICntrl=  3107 FMM=F I1Cent=   0 AccDes= 0.00D+00.
 End of G2Drv F.D. properties file   721 does not exist.
 End of G2Drv F.D. properties file   722 does not exist.
 End of G2Drv F.D. properties file   788 does not exist.
          IDoAtm=11111
          Differentiating once with respect to electric field.
                with respect to dipole field.
          Differentiating once with respect to nuclear coordinates.
 Keep R1 ints in memory in canonical form, NReq=55664968.
          There are    18 degrees of freedom in the 1st order CPHF.  IDoFFX=6 NUNeed=     3.
     15 vectors produced by pass  0 Test12= 1.31D-14 5.56D-09 XBig12= 1.36D+01 2.12D+00.
 AX will form    15 AO Fock derivatives at one time.
     15 vectors produced by pass  1 Test12= 1.31D-14 5.56D-09 XBig12= 1.69D+00 3.22D-01.
     15 vectors produced by pass  2 Test12= 1.31D-14 5.56D-09 XBig12= 1.41D-01 6.24D-02.
     15 vectors produced by pass  3 Test12= 1.31D-14 5.56D-09 XBig12= 3.80D-03 1.41D-02.
     15 vectors produced by pass  4 Test12= 1.31D-14 5.56D-09 XBig12= 4.33D-05 1.68D-03.
     15 vectors produced by pass  5 Test12= 1.31D-14 5.56D-09 XBig12= 2.76D-07 1.32D-04.
     15 vectors produced by pass  6 Test12= 1.31D-14 5.56D-09 XBig12= 1.68D-09 1.03D-05.
      4 vectors produced by pass  7 Test12= 1.31D-14 5.56D-09 XBig12= 1.31D-11 7.83D-07.
      3 vectors produced by pass  8 Test12= 1.31D-14 5.56D-09 XBig12= 7.61D-14 5.34D-08.
 InvSVY:  IOpt=1 It=  1 EMax= 8.88D-16
 Solved reduced A of dimension   112 with    15 vectors.
 Isotropic polarizability for W=    0.000000       31.70 Bohr**3.
 End of Minotr F.D. properties file   721 does not exist.
 End of Minotr F.D. properties file   722 does not exist.
 End of Minotr F.D. properties file   788 does not exist.
 Calling FoFJK, ICntrl=    100127 FMM=F ISym2X=0 I1Cent= 0 IOpClX= 0 NMat=1 NMatS=1 NMatT=0.
 ***** Axes restored to original set *****
 -------------------------------------------------------------------
 Center     Atomic                   Forces (Hartrees/Bohr)
 Number     Number              X              Y              Z
 -------------------------------------------------------------------
      1        6          -0.000075415   -0.000166119   -0.000016483
      2        9           0.000021385    0.000048721   -0.000068525
      3        9          -0.000007049    0.000069736    0.000040116
      4        9           0.000039341   -0.000013189    0.000030992
      5       17           0.000021737    0.000060851    0.000013900
 -------------------------------------------------------------------
 Cartesian Forces:  Max     0.000166119 RMS     0.000060362
 -----------------------------------------------------------------------------------------------
                       Internal Coordinate Forces (Hartree/Bohr or radian)
  Cent   Atom   N1       Length/X         N2         Alpha/Y        N3         Beta/Z          J
 -----------------------------------------------------------------------------------------------
      1  C 
      2  F        1  -0.000069(     1)
      3  F        1  -0.000020(     2)      2  -0.000089(     5)
      4  F        1  -0.000039(     3)      2  -0.000049(     6)      3   0.000067(     8)     0
      5  Cl       1  -0.000064(     4)      2   0.000029(     7)      3   0.000039(     9)     0
 -----------------------------------------------------------------------------------------------
 Internal  Forces:  Max     0.000089437 RMS     0.000055783

 GradGradGradGradGradGradGradGradGradGradGradGradGradGradGradGradGradGrad
 Berny optimization.
 Search for a local minimum.
 Step number   3 out of a maximum of   20
 All quantities printed in internal units (Hartrees-Bohrs-Radians)
 Second derivative matrix not updated -- analytic derivatives used.
 DE= -1.22D-05 DEPred=-1.22D-05 R= 1.00D+00
 TightC=F SS=  1.41D+00  RLast= 6.90D-03 DXNew= 5.5531D-01 2.0714D-02
 Trust test= 1.00D+00 RLast= 6.90D-03 DXMaxT set to 3.30D-01
 The second derivative matrix:
                          r2        r3        a3        r4        a4
           r2           0.42278
           r3           0.05440   0.42271
           a3           0.08470   0.00873   0.50078
           r4           0.05433   0.05436  -0.03779   0.42290
           a4           0.08476  -0.03768   0.13615   0.00879   0.50042
           d4          -0.00280  -0.07190   0.08545  -0.01381   0.01109
           r5           0.03817   0.03818  -0.03609   0.03816  -0.03605
           a5           0.07154  -0.03574   0.12234  -0.03575   0.12230
           d5          -0.00001   0.05812  -0.07445  -0.05814   0.07447
                          d4        r5        a5        d5
           d4           0.43702
           r5           0.05733   0.23824
           a5          -0.07077   0.00000   0.42187
           d5          -0.18519   0.00006  -0.00010   0.37194
 ITU=  1  1  0
     Eigenvalues ---    0.13459   0.21040   0.27152   0.33432   0.36982
     Eigenvalues ---    0.41275   0.54219   0.67066   0.79239
 RFO step:  Lambda=-1.03225612D-07 EMin= 1.34594335D-01
 Quintic linear search produced a step of -0.02000.
 Variable       Old X    -DE/DX   Delta X   Delta X   Delta X     New X
                                 (Linear)    (Quad)   (Total)
    r2        2.50509  -0.00007  -0.00008  -0.00001  -0.00009   2.50500
    r3        2.50502  -0.00002  -0.00008   0.00013   0.00005   2.50507
    a3        1.89897  -0.00009   0.00001  -0.00026  -0.00025   1.89873
    r4        2.50497  -0.00004  -0.00008   0.00009   0.00002   2.50498
    a4        1.89898  -0.00005   0.00001  -0.00017  -0.00017   1.89881
    d4        4.21664   0.00007   0.00000   0.00045   0.00045   4.21709
    r5        3.33346  -0.00006  -0.00001  -0.00043  -0.00044   3.33302
    a5        1.92205   0.00003   0.00000   0.00028   0.00029   1.92233
    d5        2.10821   0.00004   0.00001   0.00030   0.00031   2.10852
         Item               Value     Threshold  Converged?
 Maximum Force            0.000089     0.000002     NO 
 RMS     Force            0.000056     0.000001     NO 
 Maximum Displacement     0.000449     0.000006     NO 
 RMS     Displacement     0.000273     0.000004     NO 
 Predicted change in Energy=-5.698318D-08
 GradGradGradGradGradGradGradGradGradGradGradGradGradGradGradGradGradGrad

 ---------------------------------------------------------------------------------------------------
                            Z-MATRIX (ANGSTROMS AND DEGREES)
   CD    Cent   Atom    N1       Length/X        N2       Alpha/Y        N3        Beta/Z          J
 ---------------------------------------------------------------------------------------------------
      1      1  C 
      2      2  F        1   1.325588(     1)
      3      3  F        1   1.325628(     2)      2  108.789(     5)
      4      4  F        1   1.325580(     3)      2  108.794(     6)      3  241.621(     8)      0
      5      5  Cl       1   1.763758(     4)      2  110.142(     7)      3  120.809(     9)      0
 ---------------------------------------------------------------------------------------------------
                         Z-Matrix orientation:                         
 ---------------------------------------------------------------------
 Center     Atomic      Atomic             Coordinates (Angstroms)
 Number     Number       Type             X           Y           Z
 ---------------------------------------------------------------------
      1          6           0        0.000000    0.000000    0.000000
      2          9           0        0.000000    0.000000    1.325588
      3          9           0        1.254987    0.000000   -0.426965
      4          9           0       -0.596455    1.104097   -0.427050
      5         17           0       -0.848116   -1.422211   -0.607337
 ---------------------------------------------------------------------
                    Distance matrix (angstroms):
                    1          2          3          4          5
     1  C    0.000000
     2  F    1.325588   0.000000
     3  F    1.325628   2.155558   0.000000
     4  F    1.325580   2.155581   2.155659   0.000000
     5  Cl   1.763758   2.545227   2.545242   2.545206   0.000000
 Stoichiometry    CClF3
 Framework group  C1[X(CClF3)]
 Deg. of freedom     9
 Full point group                 C1      NOp   1
 Largest Abelian subgroup         C1      NOp   1
 Largest concise Abelian subgroup C1      NOp   1
                         Standard orientation:                         
 ---------------------------------------------------------------------
 Center     Atomic      Atomic             Coordinates (Angstroms)
 Number     Number       Type             X           Y           Z
 ---------------------------------------------------------------------
      1          6           0        0.353198    0.000030   -0.000014
      2          9           0        0.809678   -0.134824    1.237170
      3          9           0        0.809664   -1.004062   -0.735356
      4          9           0        0.809586    1.138911   -0.501832
      5         17           0       -1.410560   -0.000024    0.000014
 ---------------------------------------------------------------------
 Rotational constants (GHZ):           5.7248472           3.3126318           3.3125229
 Basis read from rwf:  (5D, 7F)
 There are   129 symmetry adapted cartesian basis functions of A   symmetry.
 There are   119 symmetry adapted basis functions of A   symmetry.
   119 basis functions,   235 primitive gaussians,   129 cartesian basis functions
    25 alpha electrons       25 beta electrons
       nuclear repulsion energy       250.3576240527 Hartrees.
 NAtoms=    5 NActive=    5 NUniq=    5 SFac= 1.00D+00 NAtFMM=   60 NAOKFM=F Big=F
 Integral buffers will be    131072 words long.
 Raffenetti 2 integral format.
 Two-electron integral symmetry is turned on.
 Nuclear repulsion after empirical dispersion term =      250.3571952317 Hartrees.
 One-electron integrals computed using PRISM.
 NBasis=   119 RedAO= T EigKep=  1.35D-03  NBF=   119
 NBsUse=   119 1.00D-06 EigRej= -1.00D+00 NBFU=   119
 Initial guess from the checkpoint file:  "checkpoint.chk"
 B after Tr=     0.000000    0.000000    0.000000
         Rot=    0.953160   -0.302468   -0.000036   -0.000039 Ang= -35.21 deg.
 Keep R1 ints in memory in canonical form, NReq=55674054.
 Requested convergence on RMS density matrix=1.00D-08 within 128 cycles.
 Requested convergence on MAX density matrix=1.00D-06.
 Requested convergence on             energy=1.00D-06.
 No special actions if energy rises.
 SCF Done:  E(RwB97XD) =  -797.691166220     A.U. after    6 cycles
            NFock=  6  Conv=0.97D-08     -V/T= 2.0016
 DoSCS=F DFT=T ScalE2(SS,OS)=  1.000000  1.000000
 Range of M.O.s used for correlation:     1   119
 NBasis=   119 NAE=    25 NBE=    25 NFC=     0 NFV=     0
 NROrb=    119 NOA=    25 NOB=    25 NVA=    94 NVB=    94
 Symmetrizing basis deriv contribution to polar:
 IMax=3 JMax=2 DiffMx= 0.00D+00
 G2DrvN: will do     6 centers at a time, making    1 passes.
 Calling FoFCou, ICntrl=  3107 FMM=F I1Cent=   0 AccDes= 0.00D+00.
 End of G2Drv F.D. properties file   721 does not exist.
 End of G2Drv F.D. properties file   722 does not exist.
 End of G2Drv F.D. properties file   788 does not exist.
          IDoAtm=11111
          Differentiating once with respect to electric field.
                with respect to dipole field.
          Differentiating once with respect to nuclear coordinates.
 Keep R1 ints in memory in canonical form, NReq=55664968.
          There are    18 degrees of freedom in the 1st order CPHF.  IDoFFX=6 NUNeed=     3.
     15 vectors produced by pass  0 Test12= 1.31D-14 5.56D-09 XBig12= 1.36D+01 2.12D+00.
 AX will form    15 AO Fock derivatives at one time.
     15 vectors produced by pass  1 Test12= 1.31D-14 5.56D-09 XBig12= 1.69D+00 3.22D-01.
     15 vectors produced by pass  2 Test12= 1.31D-14 5.56D-09 XBig12= 1.41D-01 7.42D-02.
     15 vectors produced by pass  3 Test12= 1.31D-14 5.56D-09 XBig12= 3.80D-03 1.41D-02.
     15 vectors produced by pass  4 Test12= 1.31D-14 5.56D-09 XBig12= 4.35D-05 1.68D-03.
     15 vectors produced by pass  5 Test12= 1.31D-14 5.56D-09 XBig12= 2.78D-07 1.54D-04.
     15 vectors produced by pass  6 Test12= 1.31D-14 5.56D-09 XBig12= 1.69D-09 1.21D-05.
      4 vectors produced by pass  7 Test12= 1.31D-14 5.56D-09 XBig12= 1.31D-11 7.83D-07.
      3 vectors produced by pass  8 Test12= 1.31D-14 5.56D-09 XBig12= 7.58D-14 4.72D-08.
 InvSVY:  IOpt=1 It=  1 EMax= 2.22D-15
 Solved reduced A of dimension   112 with    15 vectors.
 Isotropic polarizability for W=    0.000000       31.70 Bohr**3.
 End of Minotr F.D. properties file   721 does not exist.
 End of Minotr F.D. properties file   722 does not exist.
 End of Minotr F.D. properties file   788 does not exist.
 Calling FoFJK, ICntrl=    100127 FMM=F ISym2X=0 I1Cent= 0 IOpClX= 0 NMat=1 NMatS=1 NMatT=0.
 ***** Axes restored to original set *****
 -------------------------------------------------------------------
 Center     Atomic                   Forces (Hartrees/Bohr)
 Number     Number              X              Y              Z
 -------------------------------------------------------------------
      1        6           0.000027278   -0.000025554   -0.000000522
      2        9          -0.000007367   -0.000005188    0.000011227
      3        9          -0.000018003    0.000012006   -0.000006589
      4        9          -0.000001460    0.000019750   -0.000002314
      5       17          -0.000000449   -0.000001014   -0.000001801
 -------------------------------------------------------------------
 Cartesian Forces:  Max     0.000027278 RMS     0.000012957
 -----------------------------------------------------------------------------------------------
                       Internal Coordinate Forces (Hartree/Bohr or radian)
  Cent   Atom   N1       Length/X         N2         Alpha/Y        N3         Beta/Z          J
 -----------------------------------------------------------------------------------------------
      1  C 
      2  F        1   0.000011(     1)
      3  F        1  -0.000015(     2)      2   0.000030(     5)
      4  F        1   0.000018(     3)      2  -0.000009(     6)      3   0.000019(     8)     0
      5  Cl       1   0.000002(     4)      2   0.000004(     7)      3  -0.000000(     9)     0
 -----------------------------------------------------------------------------------------------
 Internal  Forces:  Max     0.000030152 RMS     0.000015094

 GradGradGradGradGradGradGradGradGradGradGradGradGradGradGradGradGradGrad
 Berny optimization.
 Search for a local minimum.
 Step number   4 out of a maximum of   20
 All quantities printed in internal units (Hartrees-Bohrs-Radians)
 Second derivative matrix not updated -- analytic derivatives used.
 DE= -1.19D-06 DEPred=-5.70D-08 R= 2.09D+01
 TightC=F SS=  1.41D+00  RLast= 8.18D-04 DXNew= 5.5531D-01 2.4552D-03
 Trust test= 2.09D+01 RLast= 8.18D-04 DXMaxT set to 3.30D-01
 The second derivative matrix:
                          r2        r3        a3        r4        a4
           r2           0.42282
           r3           0.05436   0.42311
           a3           0.08504   0.00879   0.50186
           r4           0.05443   0.05439  -0.03767   0.42282
           a4           0.08460  -0.03768   0.13614   0.00883   0.50072
           d4          -0.00278  -0.07196   0.08547  -0.01391   0.01096
           r5           0.03819   0.03818  -0.03616   0.03817  -0.03609
           a5           0.07151  -0.03576   0.12226  -0.03578   0.12228
           d5           0.00005   0.05814  -0.07458  -0.05815   0.07451
                          d4        r5        a5        d5
           d4           0.43752
           r5           0.05729   0.23847
           a5          -0.07070   0.00002   0.42208
           d5          -0.18516  -0.00001   0.00010   0.37190
 ITU=  1  1  1  0
     Eigenvalues ---    0.13494   0.21051   0.27195   0.33445   0.36995
     Eigenvalues ---    0.41312   0.54240   0.67106   0.79292
 RFO step:  Lambda= 0.00000000D+00 EMin= 1.34941588D-01
 Quartic linear search produced a step of  0.00023.
 Variable       Old X    -DE/DX   Delta X   Delta X   Delta X     New X
                                 (Linear)    (Quad)   (Total)
    r2        2.50500   0.00001  -0.00000   0.00002   0.00002   2.50502
    r3        2.50507  -0.00001   0.00000  -0.00005  -0.00005   2.50502
    a3        1.89873   0.00003  -0.00000   0.00008   0.00008   1.89881
    r4        2.50498   0.00002   0.00000   0.00007   0.00007   2.50505
    a4        1.89881  -0.00001  -0.00000  -0.00006  -0.00006   1.89875
    d4        4.21709   0.00002   0.00000   0.00005   0.00005   4.21714
    r5        3.33302   0.00000  -0.00000  -0.00000  -0.00000   3.33302
    a5        1.92233   0.00000   0.00000   0.00001   0.00001   1.92234
    d5        2.10852  -0.00000   0.00000   0.00007   0.00007   2.10859
         Item               Value     Threshold  Converged?
 Maximum Force            0.000030     0.000002     NO 
 RMS     Force            0.000015     0.000001     NO 
 Maximum Displacement     0.000079     0.000006     NO 
 RMS     Displacement     0.000054     0.000004     NO 
 Predicted change in Energy=-3.153493D-09
 GradGradGradGradGradGradGradGradGradGradGradGradGradGradGradGradGradGrad

 ---------------------------------------------------------------------------------------------------
                            Z-MATRIX (ANGSTROMS AND DEGREES)
   CD    Cent   Atom    N1       Length/X        N2       Alpha/Y        N3        Beta/Z          J
 ---------------------------------------------------------------------------------------------------
      1      1  C 
      2      2  F        1   1.325599(     1)
      3      3  F        1   1.325600(     2)      2  108.794(     5)
      4      4  F        1   1.325615(     3)      2  108.790(     6)      3  241.624(     8)      0
      5      5  Cl       1   1.763756(     4)      2  110.142(     7)      3  120.813(     9)      0
 ---------------------------------------------------------------------------------------------------
                         Z-Matrix orientation:                         
 ---------------------------------------------------------------------
 Center     Atomic      Atomic             Coordinates (Angstroms)
 Number     Number       Type             X           Y           Z
 ---------------------------------------------------------------------
      1          6           0        0.000000    0.000000    0.000000
      2          9           0        0.000000    0.000000    1.325599
      3          9           0        1.254926    0.000000   -0.427055
      4          9           0       -0.596425    1.104182   -0.426984
      5         17           0       -0.848212   -1.422144   -0.607353
 ---------------------------------------------------------------------
                    Distance matrix (angstroms):
                    1          2          3          4          5
     1  C    0.000000
     2  F    1.325599   0.000000
     3  F    1.325600   2.155605   0.000000
     4  F    1.325615   2.155571   2.155625   0.000000
     5  Cl   1.763756   2.545243   2.545229   2.545241   0.000000
 Stoichiometry    CClF3
 Framework group  C1[X(CClF3)]
 Deg. of freedom     9
 Full point group                 C1      NOp   1
 Largest Abelian subgroup         C1      NOp   1
 Largest concise Abelian subgroup C1      NOp   1
                         Standard orientation:                         
 ---------------------------------------------------------------------
 Center     Atomic      Atomic             Coordinates (Angstroms)
 Number     Number       Type             X           Y           Z
 ---------------------------------------------------------------------
      1          6           0        0.353188   -0.000017    0.000001
      2          9           0        0.809672    0.414110    1.173599
      3          9           0        0.809618   -1.223463   -0.228181
      4          9           0        0.809658    0.809337   -0.945430
      5         17           0       -1.410568    0.000014    0.000006
 ---------------------------------------------------------------------
 Rotational constants (GHZ):           5.7248426           3.3125771           3.3125211
 Basis read from rwf:  (5D, 7F)
 There are   129 symmetry adapted cartesian basis functions of A   symmetry.
 There are   119 symmetry adapted basis functions of A   symmetry.
   119 basis functions,   235 primitive gaussians,   129 cartesian basis functions
    25 alpha electrons       25 beta electrons
       nuclear repulsion energy       250.3568718611 Hartrees.
 NAtoms=    5 NActive=    5 NUniq=    5 SFac= 1.00D+00 NAtFMM=   60 NAOKFM=F Big=F
 Integral buffers will be    131072 words long.
 Raffenetti 2 integral format.
 Two-electron integral symmetry is turned on.
 Nuclear repulsion after empirical dispersion term =      250.3564430328 Hartrees.
 One-electron integrals computed using PRISM.
 NBasis=   119 RedAO= T EigKep=  1.35D-03  NBF=   119
 NBsUse=   119 1.00D-06 EigRej= -1.00D+00 NBFU=   119
 Initial guess from the checkpoint file:  "checkpoint.chk"
 B after Tr=    -0.000000   -0.000000    0.000000
         Rot=    0.975043    0.222014    0.000005    0.000015 Ang=  25.65 deg.
 Keep R1 ints in memory in canonical form, NReq=55674054.
 Requested convergence on RMS density matrix=1.00D-08 within 128 cycles.
 Requested convergence on MAX density matrix=1.00D-06.
 Requested convergence on             energy=1.00D-06.
 No special actions if energy rises.
 SCF Done:  E(RwB97XD) =  -797.691169175     A.U. after    5 cycles
            NFock=  5  Conv=0.76D-08     -V/T= 2.0016
 DoSCS=F DFT=T ScalE2(SS,OS)=  1.000000  1.000000
 Range of M.O.s used for correlation:     1   119
 NBasis=   119 NAE=    25 NBE=    25 NFC=     0 NFV=     0
 NROrb=    119 NOA=    25 NOB=    25 NVA=    94 NVB=    94
 Symmetrizing basis deriv contribution to polar:
 IMax=3 JMax=2 DiffMx= 0.00D+00
 G2DrvN: will do     6 centers at a time, making    1 passes.
 Calling FoFCou, ICntrl=  3107 FMM=F I1Cent=   0 AccDes= 0.00D+00.
 End of G2Drv F.D. properties file   721 does not exist.
 End of G2Drv F.D. properties file   722 does not exist.
 End of G2Drv F.D. properties file   788 does not exist.
          IDoAtm=11111
          Differentiating once with respect to electric field.
                with respect to dipole field.
          Differentiating once with respect to nuclear coordinates.
 Keep R1 ints in memory in canonical form, NReq=55664968.
          There are    18 degrees of freedom in the 1st order CPHF.  IDoFFX=6 NUNeed=     3.
     15 vectors produced by pass  0 Test12= 1.31D-14 5.56D-09 XBig12= 1.36D+01 2.12D+00.
 AX will form    15 AO Fock derivatives at one time.
     15 vectors produced by pass  1 Test12= 1.31D-14 5.56D-09 XBig12= 1.69D+00 3.22D-01.
     15 vectors produced by pass  2 Test12= 1.31D-14 5.56D-09 XBig12= 1.41D-01 7.43D-02.
     15 vectors produced by pass  3 Test12= 1.31D-14 5.56D-09 XBig12= 3.80D-03 1.41D-02.
     15 vectors produced by pass  4 Test12= 1.31D-14 5.56D-09 XBig12= 4.38D-05 1.68D-03.
     15 vectors produced by pass  5 Test12= 1.31D-14 5.56D-09 XBig12= 2.79D-07 1.54D-04.
     15 vectors produced by pass  6 Test12= 1.31D-14 5.56D-09 XBig12= 1.70D-09 1.21D-05.
      4 vectors produced by pass  7 Test12= 1.31D-14 5.56D-09 XBig12= 1.30D-11 7.84D-07.
      3 vectors produced by pass  8 Test12= 1.31D-14 5.56D-09 XBig12= 7.56D-14 5.59D-08.
 InvSVY:  IOpt=1 It=  1 EMax= 7.77D-16
 Solved reduced A of dimension   112 with    15 vectors.
 Isotropic polarizability for W=    0.000000       31.70 Bohr**3.
 End of Minotr F.D. properties file   721 does not exist.
 End of Minotr F.D. properties file   722 does not exist.
 End of Minotr F.D. properties file   788 does not exist.
 Calling FoFJK, ICntrl=    100127 FMM=F ISym2X=0 I1Cent= 0 IOpClX= 0 NMat=1 NMatS=1 NMatT=0.
 ***** Axes restored to original set *****
 -------------------------------------------------------------------
 Center     Atomic                   Forces (Hartrees/Bohr)
 Number     Number              X              Y              Z
 -------------------------------------------------------------------
      1        6          -0.000005861    0.000005158   -0.000002401
      2        9           0.000011639   -0.000003896    0.000007899
      3        9          -0.000019934    0.000004885   -0.000009092
      4        9           0.000015682   -0.000005892    0.000002887
      5       17          -0.000001526   -0.000000255    0.000000706
 -------------------------------------------------------------------
 Cartesian Forces:  Max     0.000019934 RMS     0.000008468
 -----------------------------------------------------------------------------------------------
                       Internal Coordinate Forces (Hartree/Bohr or radian)
  Cent   Atom   N1       Length/X         N2         Alpha/Y        N3         Beta/Z          J
 -----------------------------------------------------------------------------------------------
      1  C 
      2  F        1   0.000008(     1)
      3  F        1  -0.000016(     2)      2   0.000038(     5)
      4  F        1  -0.000013(     3)      2   0.000003(     6)      3   0.000026(     8)     0
      5  Cl       1   0.000001(     4)      2  -0.000003(     7)      3   0.000004(     9)     0
 -----------------------------------------------------------------------------------------------
 Internal  Forces:  Max     0.000037648 RMS     0.000017052

 GradGradGradGradGradGradGradGradGradGradGradGradGradGradGradGradGradGrad
 Berny optimization.
 Search for a local minimum.
 Step number   5 out of a maximum of   20
 All quantities printed in internal units (Hartrees-Bohrs-Radians)
 Second derivative matrix not updated -- analytic derivatives used.
 DE= -2.96D-06 DEPred=-3.15D-09 R= 9.37D+02
 TightC=F SS=  1.41D+00  RLast= 1.61D-04 DXNew= 5.5531D-01 4.8293D-04
 Trust test= 9.37D+02 RLast= 1.61D-04 DXMaxT set to 3.30D-01
 The second derivative matrix:
                          r2        r3        a3        r4        a4
           r2           0.42318
           r3           0.05437   0.42303
           a3           0.08495   0.00860   0.50152
           r4           0.05445   0.05438  -0.03774   0.42280
           a4           0.08482  -0.03763   0.13625   0.00895   0.50067
           d4          -0.00292  -0.07209   0.08577  -0.01384   0.01067
           r5           0.03818   0.03820  -0.03613   0.03819  -0.03608
           a5           0.07154  -0.03581   0.12223  -0.03575   0.12227
           d5          -0.00002   0.05815  -0.07452  -0.05816   0.07456
                          d4        r5        a5        d5
           d4           0.43774
           r5           0.05734   0.23847
           a5          -0.07078  -0.00000   0.42223
           d5          -0.18520   0.00001  -0.00009   0.37212
 ITU=  1  1  1  1  0
     Eigenvalues ---    0.13497   0.21059   0.27188   0.33444   0.37008
     Eigenvalues ---    0.41292   0.54242   0.67150   0.79295
 RFO step:  Lambda= 0.00000000D+00 EMin= 1.34972554D-01
 Quartic linear search produced a step of  0.00026.
 Variable       Old X    -DE/DX   Delta X   Delta X   Delta X     New X
                                 (Linear)    (Quad)   (Total)
    r2        2.50502   0.00001   0.00000   0.00001   0.00001   2.50503
    r3        2.50502  -0.00002  -0.00000  -0.00001  -0.00001   2.50501
    a3        1.89881   0.00004   0.00000   0.00004   0.00004   1.89884
    r4        2.50505  -0.00001   0.00000  -0.00007  -0.00007   2.50498
    a4        1.89875   0.00000  -0.00000   0.00003   0.00003   1.89878
    d4        4.21714   0.00003   0.00000   0.00000   0.00000   4.21714
    r5        3.33302   0.00000  -0.00000   0.00003   0.00003   3.33304
    a5        1.92234  -0.00000   0.00000  -0.00004  -0.00004   1.92231
    d5        2.10859   0.00000   0.00000  -0.00003  -0.00003   2.10856
         Item               Value     Threshold  Converged?
 Maximum Force            0.000038     0.000002     NO 
 RMS     Force            0.000017     0.000001     NO 
 Maximum Displacement     0.000065     0.000006     NO 
 RMS     Displacement     0.000034     0.000004     NO 
 Predicted change in Energy=-9.393698D-10
 GradGradGradGradGradGradGradGradGradGradGradGradGradGradGradGradGradGrad

 ---------------------------------------------------------------------------------------------------
                            Z-MATRIX (ANGSTROMS AND DEGREES)
   CD    Cent   Atom    N1       Length/X        N2       Alpha/Y        N3        Beta/Z          J
 ---------------------------------------------------------------------------------------------------
      1      1  C 
      2      2  F        1   1.325604(     1)
      3      3  F        1   1.325596(     2)      2  108.796(     5)
      4      4  F        1   1.325581(     3)      2  108.792(     6)      3  241.625(     8)      0
      5      5  Cl       1   1.763769(     4)      2  110.140(     7)      3  120.812(     9)      0
 ---------------------------------------------------------------------------------------------------
                         Z-Matrix orientation:                         
 ---------------------------------------------------------------------
 Center     Atomic      Atomic             Coordinates (Angstroms)
 Number     Number       Type             X           Y           Z
 ---------------------------------------------------------------------
      1          6           0        0.000000    0.000000    0.000000
      2          9           0        0.000000    0.000000    1.325604
      3          9           0        1.254906    0.000000   -0.427102
      4          9           0       -0.596398    1.104144   -0.427014
      5         17           0       -0.848190   -1.422200   -0.607292
 ---------------------------------------------------------------------
                    Distance matrix (angstroms):
                    1          2          3          4          5
     1  C    0.000000
     2  F    1.325604   0.000000
     3  F    1.325596   2.155636   0.000000
     4  F    1.325581   2.155572   2.155564   0.000000
     5  Cl   1.763769   2.545224   2.545218   2.545253   0.000000
 Stoichiometry    CClF3
 Framework group  C1[X(CClF3)]
 Deg. of freedom     9
 Full point group                 C1      NOp   1
 Largest Abelian subgroup         C1      NOp   1
 Largest concise Abelian subgroup C1      NOp   1
                         Standard orientation:                         
 ---------------------------------------------------------------------
 Center     Atomic      Atomic             Coordinates (Angstroms)
 Number     Number       Type             X           Y           Z
 ---------------------------------------------------------------------
      1          6           0        0.353202   -0.000001    0.000006
      2          9           0        0.809617    1.107405    0.567953
      3          9           0        0.809609   -1.045570    0.675050
      4          9           0        0.809712   -0.061835   -1.242950
      5         17           0       -1.410567    0.000001   -0.000030
 ---------------------------------------------------------------------
 Rotational constants (GHZ):           5.7248930           3.3126027           3.3125220
 Basis read from rwf:  (5D, 7F)
 There are   129 symmetry adapted cartesian basis functions of A   symmetry.
 There are   119 symmetry adapted basis functions of A   symmetry.
   119 basis functions,   235 primitive gaussians,   129 cartesian basis functions
    25 alpha electrons       25 beta electrons
       nuclear repulsion energy       250.3576600362 Hartrees.
 NAtoms=    5 NActive=    5 NUniq=    5 SFac= 1.00D+00 NAtFMM=   60 NAOKFM=F Big=F
 Integral buffers will be    131072 words long.
 Raffenetti 2 integral format.
 Two-electron integral symmetry is turned on.
 Nuclear repulsion after empirical dispersion term =      250.3572312153 Hartrees.
 One-electron integrals computed using PRISM.
 NBasis=   119 RedAO= T EigKep=  1.35D-03  NBF=   119
 NBsUse=   119 1.00D-06 EigRej= -1.00D+00 NBFU=   119
 Initial guess from the checkpoint file:  "checkpoint.chk"
 B after Tr=     0.000000   -0.000000   -0.000000
         Rot=    0.929092    0.369849    0.000014   -0.000002 Ang=  43.41 deg.
 Keep R1 ints in memory in canonical form, NReq=55674054.
 Requested convergence on RMS density matrix=1.00D-08 within 128 cycles.
 Requested convergence on MAX density matrix=1.00D-06.
 Requested convergence on             energy=1.00D-06.
 No special actions if energy rises.
 SCF Done:  E(RwB97XD) =  -797.691165223     A.U. after    5 cycles
            NFock=  5  Conv=0.65D-08     -V/T= 2.0016
 DoSCS=F DFT=T ScalE2(SS,OS)=  1.000000  1.000000
 Range of M.O.s used for correlation:     1   119
 NBasis=   119 NAE=    25 NBE=    25 NFC=     0 NFV=     0
 NROrb=    119 NOA=    25 NOB=    25 NVA=    94 NVB=    94
 Symmetrizing basis deriv contribution to polar:
 IMax=3 JMax=2 DiffMx= 0.00D+00
 G2DrvN: will do     6 centers at a time, making    1 passes.
 Calling FoFCou, ICntrl=  3107 FMM=F I1Cent=   0 AccDes= 0.00D+00.
 End of G2Drv F.D. properties file   721 does not exist.
 End of G2Drv F.D. properties file   722 does not exist.
 End of G2Drv F.D. properties file   788 does not exist.
          IDoAtm=11111
          Differentiating once with respect to electric field.
                with respect to dipole field.
          Differentiating once with respect to nuclear coordinates.
 Keep R1 ints in memory in canonical form, NReq=55664968.
          There are    18 degrees of freedom in the 1st order CPHF.  IDoFFX=6 NUNeed=     3.
     15 vectors produced by pass  0 Test12= 1.31D-14 5.56D-09 XBig12= 1.36D+01 2.12D+00.
 AX will form    15 AO Fock derivatives at one time.
     15 vectors produced by pass  1 Test12= 1.31D-14 5.56D-09 XBig12= 1.69D+00 3.22D-01.
     15 vectors produced by pass  2 Test12= 1.31D-14 5.56D-09 XBig12= 1.41D-01 7.41D-02.
     15 vectors produced by pass  3 Test12= 1.31D-14 5.56D-09 XBig12= 3.80D-03 1.41D-02.
     15 vectors produced by pass  4 Test12= 1.31D-14 5.56D-09 XBig12= 4.33D-05 1.68D-03.
     15 vectors produced by pass  5 Test12= 1.31D-14 5.56D-09 XBig12= 2.76D-07 1.50D-04.
     15 vectors produced by pass  6 Test12= 1.31D-14 5.56D-09 XBig12= 1.68D-09 1.18D-05.
      4 vectors produced by pass  7 Test12= 1.31D-14 5.56D-09 XBig12= 1.31D-11 7.82D-07.
      3 vectors produced by pass  8 Test12= 1.31D-14 5.56D-09 XBig12= 7.61D-14 5.95D-08.
 InvSVY:  IOpt=1 It=  1 EMax= 1.11D-15
 Solved reduced A of dimension   112 with    15 vectors.
 Isotropic polarizability for W=    0.000000       31.70 Bohr**3.
 End of Minotr F.D. properties file   721 does not exist.
 End of Minotr F.D. properties file   722 does not exist.
 End of Minotr F.D. properties file   788 does not exist.
 Calling FoFJK, ICntrl=    100127 FMM=F ISym2X=0 I1Cent= 0 IOpClX= 0 NMat=1 NMatS=1 NMatT=0.
 ***** Axes restored to original set *****
 -------------------------------------------------------------------
 Center     Atomic                   Forces (Hartrees/Bohr)
 Number     Number              X              Y              Z
 -------------------------------------------------------------------
      1        6          -0.000004419   -0.000017316   -0.000003054
      2        9           0.000008510   -0.000003226   -0.000010731
      3        9           0.000010025   -0.000012457    0.000013217
      4        9          -0.000014157    0.000028765   -0.000000350
      5       17           0.000000040    0.000004235    0.000000919
 -------------------------------------------------------------------
 Cartesian Forces:  Max     0.000028765 RMS     0.000011558
 -----------------------------------------------------------------------------------------------
                       Internal Coordinate Forces (Hartree/Bohr or radian)
  Cent   Atom   N1       Length/X         N2         Alpha/Y        N3         Beta/Z          J
 -----------------------------------------------------------------------------------------------
      1  C 
      2  F        1  -0.000011(     1)
      3  F        1   0.000005(     2)      2  -0.000039(     5)
      4  F        1   0.000030(     3)      2  -0.000025(     6)      3   0.000003(     8)     0
      5  Cl       1  -0.000004(     4)      2   0.000001(     7)      3   0.000007(     9)     0
 -----------------------------------------------------------------------------------------------
 Internal  Forces:  Max     0.000039435 RMS     0.000019204

 GradGradGradGradGradGradGradGradGradGradGradGradGradGradGradGradGradGrad
 Berny optimization.
 Search for a local minimum.
 Step number   6 out of a maximum of   20
 All quantities printed in internal units (Hartrees-Bohrs-Radians)
 Second derivative matrix not updated -- analytic derivatives used.
 DE=  3.95D-06 DEPred=-9.39D-10 R=-4.21D+03
 Trust test=-4.21D+03 RLast= 1.01D-04 DXMaxT set to 1.65D-01
 The second derivative matrix:
                          r2        r3        a3        r4        a4
           r2           0.42278
           r3           0.05435   0.42292
           a3           0.08486   0.00877   0.50061
           r4           0.05445   0.05436  -0.03773   0.42284
           a4           0.08460  -0.03781   0.13618   0.00893   0.50041
           d4          -0.00281  -0.07214   0.08541  -0.01385   0.01146
           r5           0.03817   0.03818  -0.03607   0.03818  -0.03611
           a5           0.07153  -0.03576   0.12234  -0.03576   0.12231
           d5           0.00001   0.05815  -0.07452  -0.05809   0.07446
                          d4        r5        a5        d5
           d4           0.43796
           r5           0.05728   0.23846
           a5          -0.07068  -0.00001   0.42188
           d5          -0.18518  -0.00002   0.00009   0.37184
[...]
                         Z-Matrix orientation:                         
 ---------------------------------------------------------------------
 Center     Atomic      Atomic             Coordinates (Angstroms)
 Number     Number       Type             X           Y           Z
 ---------------------------------------------------------------------
      1          6           0        0.000000    0.000000    0.000000
      2          9           0        0.000000    0.000000    1.325599
      3          9           0        1.254926    0.000000   -0.427055
      4          9           0       -0.596425    1.104182   -0.426984
      5         17           0       -0.848212   -1.422144   -0.607353
 ---------------------------------------------------------------------
                    Distance matrix (angstroms):
                    1          2          3          4          5
     1  C    0.000000
     2  F    1.325599   0.000000
     3  F    1.325600   2.155605   0.000000
     4  F    1.325615   2.155571   2.155625   0.000000
     5  Cl   1.763756   2.545243   2.545229   2.545241   0.000000
 Stoichiometry    CClF3
 Framework group  C1[X(CClF3)]
 Deg. of freedom     9
 Full point group                 C1      NOp   1
 Largest Abelian subgroup         C1      NOp   1
 Largest concise Abelian subgroup C1      NOp   1
                         Standard orientation:                         
 ---------------------------------------------------------------------
 Center     Atomic      Atomic             Coordinates (Angstroms)
 Number     Number       Type             X           Y           Z
 ---------------------------------------------------------------------
      1          6           0        0.353188   -0.000017    0.000001
      2          9           0        0.809672    0.414111    1.173599
      3          9           0        0.809618   -1.223463   -0.228181
      4          9           0        0.809658    0.809336   -0.945430
      5         17           0       -1.410568    0.000014    0.000006
 ---------------------------------------------------------------------
 Rotational constants (GHZ):           5.7248426           3.3125771           3.3125211

 **********************************************************************

            Population analysis using the SCF Density.

 **********************************************************************

 Orbital symmetries:
       Occupied  (A) (A) (A) (A) (A) (A) (A) (A) (A) (A) (A) (A)
                 (A) (A) (A) (A) (A) (A) (A) (A) (A) (A) (A) (A)
                 (A)
       Virtual   (A) (A) (A) (A) (A) (A) (A) (A) (A) (A) (A) (A)
                 (A) (A) (A) (A) (A) (A) (A) (A) (A) (A) (A) (A)
                 (A) (A) (A) (A) (A) (A) (A) (A) (A) (A) (A) (A)
                 (A) (A) (A) (A) (A) (A) (A) (A) (A) (A) (A) (A)
                 (A) (A) (A) (A) (A) (A) (A) (A) (A) (A) (A) (A)
                 (A) (A) (A) (A) (A) (A) (A) (A) (A) (A) (A) (A)
                 (A) (A) (A) (A) (A) (A) (A) (A) (A) (A) (A) (A)
                 (A) (A) (A) (A) (A) (A) (A) (A) (A) (A)
 The electronic state is 1-A.
 Alpha  occ. eigenvalues -- -101.71982 -24.87946 -24.87942 -24.87942 -10.62186
 Alpha  occ. eigenvalues --   -9.62088  -7.36846  -7.35719  -7.35719  -1.47713
 Alpha  occ. eigenvalues --   -1.38285  -1.38284  -1.00516  -0.82842  -0.73667
 Alpha  occ. eigenvalues --   -0.73667  -0.69825  -0.60255  -0.60254  -0.56639
 Alpha  occ. eigenvalues --   -0.56639  -0.53913  -0.51994  -0.44323  -0.44323
 Alpha virt. eigenvalues --    0.04967   0.07463   0.07684   0.07986   0.07986
 Alpha virt. eigenvalues --    0.12919   0.12919   0.13147   0.17523   0.17523
 Alpha virt. eigenvalues --    0.20534   0.20534   0.23699   0.23760   0.23761
 Alpha virt. eigenvalues --    0.25969   0.26700   0.26701   0.27540   0.28103
 Alpha virt. eigenvalues --    0.30615   0.30615   0.31874   0.39632   0.39632
 Alpha virt. eigenvalues --    0.39784   0.40729   0.42057   0.43215   0.43216
 Alpha virt. eigenvalues --    0.51023   0.51025   0.52527   0.52528   0.65214
 Alpha virt. eigenvalues --    0.65214   0.65736   0.74995   0.74996   0.78394
 Alpha virt. eigenvalues --    0.79379   0.80230   0.80261   0.80263   0.82073
 Alpha virt. eigenvalues --    0.82075   0.83481   0.86090   0.86828   0.86829
 Alpha virt. eigenvalues --    0.97318   0.97318   0.98328   0.98328   0.98686
 Alpha virt. eigenvalues --    1.05937   1.05939   1.12633   1.19563   1.19564
 Alpha virt. eigenvalues --    1.38927   1.44281   1.44281   1.49806   1.70731
 Alpha virt. eigenvalues --    1.70732   1.71116   1.81841   1.95729   1.95729
 Alpha virt. eigenvalues --    2.02488   2.02877   2.02878   2.16975   2.16976
 Alpha virt. eigenvalues --    2.21284   2.70143   2.70145   2.71351   2.79999
 Alpha virt. eigenvalues --    2.82066   2.82066   2.84362   2.84362   2.84843
 Alpha virt. eigenvalues --    2.91037   2.91038   2.94167   3.11382   3.31300
 Alpha virt. eigenvalues --    3.31302   3.58590   3.62125   3.62128
          Condensed to atoms (all electrons):
               1          2          3          4          5
     1  C    4.025142  -0.208915  -0.208972  -0.208923   0.396187
     2  F   -0.208915  10.096849  -0.105529  -0.105555  -0.114551
     3  F   -0.208972  -0.105529  10.096904  -0.105527  -0.114552
     4  F   -0.208923  -0.105555  -0.105527  10.096878  -0.114549
     5  Cl   0.396187  -0.114551  -0.114552  -0.114549  17.466000
 Mulliken charges:
               1
     1  C    2.205482
     2  F   -0.562300
     3  F   -0.562324
     4  F   -0.562324
     5  Cl  -0.518534
 Sum of Mulliken charges =   0.00000
 Mulliken charges with hydrogens summed into heavy atoms:
               1
     1  C    2.205482
     2  F   -0.562300
     3  F   -0.562324
     4  F   -0.562324
     5  Cl  -0.518534
 APT charges:
               1
     1  C    1.908702
     2  F   -0.547093
     3  F   -0.547018
     4  F   -0.547180
     5  Cl  -0.267411
 Sum of APT charges =   0.00000
 APT charges with hydrogens summed into heavy atoms:
               1
     1  C    1.908702
     2  F   -0.547093
     3  F   -0.547018
     4  F   -0.547180
     5  Cl  -0.267411
 Electronic spatial extent (au):  <R**2>=            409.7077
 Charge=              0.0000 electrons
 Dipole moment (field-independent basis, Debye):
    X=             -0.3301    Y=             -0.0001    Z=              0.0001  Tot=              0.3301
 Quadrupole moment (field-independent basis, Debye-Ang):
   XX=            -31.8441   YY=            -33.6412   ZZ=            -33.6412
   XY=             -0.0002   XZ=              0.0001   YZ=             -0.0000
 Traceless Quadrupole moment (field-independent basis, Debye-Ang):
   XX=              1.1980   YY=             -0.5990   ZZ=             -0.5990
   XY=             -0.0002   XZ=              0.0001   YZ=             -0.0000
 Octapole moment (field-independent basis, Debye-Ang**2):
  XXX=              5.9970  YYY=              0.4265  ZZZ=             -0.2634  XYY=              3.8280
  XXY=             -0.0001  XXZ=              0.0000  XZZ=              3.8278  YZZ=             -0.4267
  YYZ=              0.2636  XYZ=             -0.0000
 Hexadecapole moment (field-independent basis, Debye-Ang**3):
 XXXX=           -218.5876 YYYY=            -96.3328 ZZZZ=            -96.3292 XXXY=             -0.0006
 XXXZ=              0.0001 YYYX=             -0.1262 YYYZ=             -0.0001 ZZZX=              0.0781
 ZZZY=              0.0001 XXYY=            -56.8096 XXZZ=            -56.8091 YYZZ=            -32.1102
 XXYZ=              0.0000 YYXZ=             -0.0777 ZZXY=              0.1263
 N-N= 2.503564430334D+02 E-N=-2.398038874042D+03  KE= 7.964179550043D+02
  Exact polarizability:      36.927      -0.002      29.081       0.001       0.002      29.083
 Approx polarizability:      39.245      -0.000      32.121      -0.000      -0.000      32.120
 Rotating derivatives to standard orientation.
 Full mass-weighted force constant matrix:
 Low frequencies ---   -4.6874   -0.0031   -0.0024   -0.0016   11.1163   12.9950
 Low frequencies ---  348.5915  348.6136  477.1556
 Diagonal vibrational polarizability:
       12.0612777       5.3822576       5.3864515
 Harmonic frequencies (cm**-1), IR intensities (KM/Mole), Raman scattering
 activities (A**4/AMU), depolarization ratios for plane and unpolarized
 incident light, reduced masses (AMU), force constants (mDyne/A),
 and normal coordinates:
                      1                      2                      3
                      A                      A                      A
 Frequencies --    348.5914               348.6136               477.1556
 Red. masses --     20.3486                20.3487                26.1538
 Frc consts  --      1.4569                 1.4571                 3.5084
 IR Inten    --      0.0007                 0.0006                 0.0507
  Atom  AN      X      Y      Z        X      Y      Z        X      Y      Z
     1   6    -0.00   0.10  -0.19    -0.00  -0.19  -0.10    -0.05  -0.00  -0.00
     2   9    -0.46   0.23  -0.07    -0.50  -0.20   0.09    -0.40   0.05   0.14
     3   9    -0.20   0.05  -0.30     0.65   0.03  -0.09    -0.40  -0.15  -0.03
     4   9     0.66  -0.07  -0.03    -0.15  -0.24  -0.21    -0.40   0.10  -0.11
     5  17     0.00  -0.15   0.29    -0.00   0.29   0.15     0.67   0.00   0.00
                      4                      5                      6
                      A                      A                      A
 Frequencies --    559.4490               559.5206               789.0903
 Red. masses --     18.1378                18.1392                17.6721
 Frc consts  --      3.3447                 3.3458                 6.4832
 IR Inten    --      1.5023                 1.4887                36.6244
  Atom  AN      X      Y      Z        X      Y      Z        X      Y      Z
     1   6    -0.00   0.33   0.20    -0.00   0.20  -0.33    -0.50  -0.00  -0.00
     2   9     0.12  -0.19   0.48    -0.10  -0.50  -0.16     0.00  -0.16  -0.46
     3   9    -0.15   0.49  -0.10    -0.06   0.08   0.53     0.00   0.48   0.09
     4   9     0.03  -0.35  -0.41     0.16   0.39  -0.32     0.00  -0.32   0.37
     5  17     0.00  -0.09  -0.05    -0.00  -0.05   0.09     0.17  -0.00   0.00
                      7                      8                      9
                      A                      A                      A
 Frequencies --   1110.5766              1233.9502              1234.2563
 Red. masses --     13.4613                13.2147                13.2153
 Frc consts  --      9.7822                11.8550                11.8615
 IR Inten    --    479.9654               297.4452               297.4307
  Atom  AN      X      Y      Z        X      Y      Z        X      Y      Z
     1   6     0.89   0.00  -0.00    -0.00   0.67  -0.61     0.00   0.61   0.67
     2   9    -0.16  -0.07  -0.19     0.04  -0.00   0.13    -0.10  -0.12  -0.27
     3   9    -0.16   0.20   0.04     0.07  -0.19   0.01     0.09  -0.24  -0.08
     4   9    -0.16  -0.13   0.16    -0.11  -0.21   0.23     0.01  -0.01  -0.06
     5  17    -0.05  -0.00   0.00     0.00  -0.01   0.01    -0.00  -0.01  -0.01

 -------------------
 - Thermochemistry -
 -------------------
 Temperature   298.150 Kelvin.  Pressure   1.00000 Atm.
 Atom     1 has atomic number  6 and mass  12.00000
 Atom     2 has atomic number  9 and mass  18.99840
 Atom     3 has atomic number  9 and mass  18.99840
 Atom     4 has atomic number  9 and mass  18.99840
 Atom     5 has atomic number 17 and mass  34.96885
 Molecular mass:   103.96406 amu.
 Principal axes and moments of inertia in atomic units:
                           1         2         3
     Eigenvalues --   315.24731 544.81485 544.82406
           X            1.00000  -0.00000  -0.00000
           Y            0.00000   1.00000   0.00000
           Z            0.00000  -0.00000   1.00000
 This molecule is an asymmetric top.
 Rotational symmetry number  1.
 Rotational temperatures (Kelvin)      0.27475     0.15898     0.15898
 Rotational constants (GHZ):           5.72484     3.31258     3.31252
 Zero-point vibrational energy      39842.8 (Joules/Mol)
                                    9.52267 (Kcal/Mol)
 Warning -- explicit consideration of   5 degrees of freedom as
           vibrations may cause significant error
 Vibrational temperatures:    501.55   501.58   686.52   804.92   805.03
          (Kelvin)           1135.32  1597.87  1775.38  1775.82
 
 Zero-point correction=                           0.015175 (Hartree/Particle)
 Thermal correction to Energy=                    0.019477
 Thermal correction to Enthalpy=                  0.020421
 Thermal correction to Gibbs Free Energy=        -0.012997
 Sum of electronic and zero-point Energies=           -797.675994
 Sum of electronic and thermal Energies=              -797.671692
 Sum of electronic and thermal Enthalpies=            -797.670748
 Sum of electronic and thermal Free Energies=         -797.704166
 
                     E (Thermal)             CV                S
                      KCal/Mol        Cal/Mol-Kelvin    Cal/Mol-Kelvin
 Total                   12.222             13.964             70.334
 Electronic               0.000              0.000              0.000
 Translational            0.889              2.981             39.834
 Rotational               0.889              2.981             26.040
 Vibrational             10.445              8.002              4.460
 Vibration     1          0.726              1.578              1.173
 Vibration     2          0.726              1.578              1.172
 Vibration     3          0.834              1.301              0.718
 Vibration     4          0.915              1.119              0.525
 Vibration     5          0.915              1.119              0.525
                       Q            Log10(Q)             Ln(Q)
 Total Bot       0.950567D+06          5.977983         13.764814
 Total V=0       0.908130D+13         12.958148         29.837238
 Vib (Bot)       0.208344D-06         -6.681220        -15.384077
 Vib (Bot)    1  0.529754D+00         -0.275926         -0.635342
 Vib (Bot)    2  0.529713D+00         -0.275960         -0.635420
 Vib (Bot)    3  0.351361D+00         -0.454247         -1.045942
 Vib (Bot)    4  0.277962D+00         -0.556015         -1.280271
 Vib (Bot)    5  0.277907D+00         -0.556101         -1.280469
 Vib (V=0)       0.199042D+01          0.298945          0.688347
 Vib (V=0)    1  0.122845D+01          0.089357          0.205753
 Vib (V=0)    2  0.122842D+01          0.089347          0.205729
 Vib (V=0)    3  0.111111D+01          0.045757          0.105359
 Vib (V=0)    4  0.107207D+01          0.030223          0.069590
 Vib (V=0)    5  0.107204D+01          0.030212          0.069565
 Electronic      0.100000D+01          0.000000          0.000000
 Translational   0.416657D+08          7.619779         17.545189
 Rotational      0.109502D+06          5.039424         11.603702
 ***** Axes restored to original set *****
 -------------------------------------------------------------------
 Center     Atomic                   Forces (Hartrees/Bohr)
 Number     Number              X              Y              Z
 -------------------------------------------------------------------
      1        6          -0.000005803    0.000005171   -0.000002400
      2        9           0.000011624   -0.000003902    0.000007883
      3        9          -0.000019988    0.000004878   -0.000009086
      4        9           0.000015683   -0.000005920    0.000002891
      5       17          -0.000001516   -0.000000226    0.000000712
 -------------------------------------------------------------------
 Cartesian Forces:  Max     0.000019988 RMS     0.000008472
 -----------------------------------------------------------------------------------------------
                       Internal Coordinate Forces (Hartree/Bohr or radian)
  Cent   Atom   N1       Length/X         N2         Alpha/Y        N3         Beta/Z          J
 -----------------------------------------------------------------------------------------------
      1  C 
      2  F        1   0.000008(     1)
      3  F        1  -0.000016(     2)      2   0.000038(     5)
      4  F        1  -0.000013(     3)      2   0.000003(     6)      3   0.000026(     8)     0
      5  Cl       1   0.000001(     4)      2  -0.000003(     7)      3   0.000004(     9)     0
 -----------------------------------------------------------------------------------------------
 Internal  Forces:  Max     0.000037678 RMS     0.000017062

 ----------------------------------------------------------------------

 Electric dipole moment (input orientation):
 (Debye = 10**-18 statcoulomb cm , SI units = C m)
                  (au)            (Debye)         (10**-30 SI)
   Tot        0.129871D+00      0.330099D+00      0.110109D+01
   x         -0.624151D-01     -0.158643D+00     -0.529177D+00
   y         -0.104748D+00     -0.266242D+00     -0.888087D+00
   z         -0.447074D-01     -0.113635D+00     -0.379045D+00

 Dipole polarizability, Alpha (input orientation).
 (esu units = cm**3 , SI units = C**2 m**2 J**-1)
 Alpha(0;0):
               (au)            (10**-24 esu)      (10**-40 SI)
   iso        0.316970D+02      0.469702D+01      0.522613D+01
   aniso      0.784530D+01      0.116255D+01      0.129351D+01
   xx         0.308968D+02      0.457844D+01      0.509420D+01
   yx         0.304389D+01      0.451058D+00      0.501870D+00
   yy         0.341801D+02      0.506496D+01      0.563553D+01
   zx         0.129884D+01      0.192468D+00      0.214150D+00
   zy         0.217833D+01      0.322795D+00      0.359158D+00
   zz         0.300142D+02      0.444765D+01      0.494867D+01

 ----------------------------------------------------------------------

 Dipole orientation:
     6         -0.00000000         -0.00000000         -0.00000000
     9         -1.20389527          2.02042685         -0.86234019
     9          2.35184490          0.03292983         -0.86189948
     9         -1.14732893         -2.05261930         -0.86351997
    17         -0.00093541         -0.00100023          3.33301497

 Electric dipole moment (dipole orientation):
 (Debye = 10**-18 statcoulomb cm , SI units = C m)
                  (au)            (Debye)         (10**-30 SI)
   Tot        0.129871D+00      0.330099D+00      0.110109D+01
   x          0.000000D+00      0.000000D+00      0.000000D+00
   y          0.000000D+00      0.000000D+00      0.000000D+00
   z          0.129871D+00      0.330099D+00      0.110109D+01

 Dipole polarizability, Alpha (dipole orientation).
 (esu units = cm**3 , SI units = C**2 m**2 J**-1)
 Alpha(0;0):
               (au)            (10**-24 esu)      (10**-40 SI)
   iso        0.316970D+02      0.469702D+01      0.522613D+01
   aniso      0.784530D+01      0.116255D+01      0.129351D+01
   xx         0.290820D+02      0.430950D+01      0.479497D+01
   yx        -0.210794D-02     -0.312364D-03     -0.347552D-03
   yy         0.290819D+02      0.430949D+01      0.479496D+01
   zx        -0.351891D-02     -0.521448D-03     -0.580189D-03
   zy        -0.380345D-02     -0.563613D-03     -0.627104D-03
   zz         0.369272D+02      0.547205D+01      0.608848D+01

 ----------------------------------------------------------------------


 "TIGER, TIGER BURNING BRIGHT
 IN THE FOREST OF THE NIGHT.
 WHAT IMMORTAL HAND OR EYE
 CAN FRAME THY FEARFUL SYMMETRYE?"
                     - WILLIAM BLAKE
 Error termination request processed by link 9999.
 Error termination via Lnk1e in /apps/gaussian/g16c01/g16/l9999.exe at Thu Jul 30 12:21:08 2020.
 Job cpu time:       0 days  0 hours 57 minutes 12.6 seconds.
 Elapsed time:       0 days  0 hours 52 minutes 31.6 seconds.
 File lengths (MBytes):  RWF=     15 Int=      0 D2E=      0 Chk=      2 Scr=      1
