 Entering Gaussian System, Link 0=g16
 Input=CFC-22.gjf
 Output=CFC-22.log
 Initial command:
 /apps/gaussian/g16c01/g16/l1.exe "/jobfs/9171156.gadi-pbs/Gau-2007112.inp" -scrdir="/jobfs/9171156.gadi-pbs/"
 Entering Link 1 = /apps/gaussian/g16c01/g16/l1.exe PID=   2007113.
  
 Copyright (c) 1988-2019, Gaussian, Inc.  All Rights Reserved.
  
 This is part of the Gaussian(R) 16 program.  It is based on
 the Gaussian(R) 09 system (copyright 2009, Gaussian, Inc.),
 the Gaussian(R) 03 system (copyright 2003, Gaussian, Inc.),
 the Gaussian(R) 98 system (copyright 1998, Gaussian, Inc.),
 the Gaussian(R) 94 system (copyright 1995, Gaussian, Inc.),
 the Gaussian 92(TM) system (copyright 1992, Gaussian, Inc.),
 the Gaussian 90(TM) system (copyright 1990, Gaussian, Inc.),
 the Gaussian 88(TM) system (copyright 1988, Gaussian, Inc.),
 the Gaussian 86(TM) system (copyright 1986, Carnegie Mellon
 University), and the Gaussian 82(TM) system (copyright 1983,
 Carnegie Mellon University). Gaussian is a federally registered
 trademark of Gaussian, Inc.
  
 This software contains proprietary and confidential information,
 including trade secrets, belonging to Gaussian, Inc.
  
 This software is provided under written license and may be
 used, copied, transmitted, or stored only in accord with that
 written license.
  
 The following legend is applicable only to US Government
 contracts under FAR:
  
                    RESTRICTED RIGHTS LEGEND
  
 Use, reproduction and disclosure by the US Government is
 subject to restrictions as set forth in subparagraphs (a)
 and (c) of the Commercial Computer Software - Restricted
 Rights clause in FAR 52.227-19.
  
 Gaussian, Inc.
 340 Quinnipiac St., Bldg. 40, Wallingford CT 06492
  
  
 ---------------------------------------------------------------
 Warning -- This program may not be used in any manner that
 competes with the business of Gaussian, Inc. or will provide
 assistance to any competitor of Gaussian, Inc.  The licensee
 of this program is prohibited from giving any competitor of
 Gaussian, Inc. access to this program.  By using this program,
 the user acknowledges that Gaussian, Inc. is engaged in the
 business of creating and licensing software in the field of
 computational chemistry and represents and warrants to the
 licensee that it is not a competitor of Gaussian, Inc. and that
 it will not use this program in any manner prohibited above.
 ---------------------------------------------------------------
  

 Cite this work as:
 Gaussian 16, Revision C.01,
 M. J. Frisch, G. W. Trucks, H. B. Schlegel, G. E. Scuseria, 
 M. A. Robb, J. R. Cheeseman, G. Scalmani, V. Barone, 
 G. A. Petersson, H. Nakatsuji, X. Li, M. Caricato, A. V. Marenich, 
 J. Bloino, B. G. Janesko, R. Gomperts, B. Mennucci, H. P. Hratchian, 
 J. V. Ortiz, A. F. Izmaylov, J. L. Sonnenberg, D. Williams-Young, 
 F. Ding, F. Lipparini, F. Egidi, J. Goings, B. Peng, A. Petrone, 
 T. Henderson, D. Ranasinghe, V. G. Zakrzewski, J. Gao, N. Rega, 
 G. Zheng, W. Liang, M. Hada, M. Ehara, K. Toyota, R. Fukuda, 
 J. Hasegawa, M. Ishida, T. Nakajima, Y. Honda, O. Kitao, H. Nakai, 
 T. Vreven, K. Throssell, J. A. Montgomery, Jr., J. E. Peralta, 
 F. Ogliaro, M. J. Bearpark, J. J. Heyd, E. N. Brothers, K. N. Kudin, 
 V. N. Staroverov, T. A. Keith, R. Kobayashi, J. Normand, 
 K. Raghavachari, A. P. Rendell, J. C. Burant, S. S. Iyengar, 
 J. Tomasi, M. Cossi, J. M. Millam, M. Klene, C. Adamo, R. Cammi, 
 J. W. Ochterski, R. L. Martin, K. Morokuma, O. Farkas, 
 J. B. Foresman, and D. J. Fox, Gaussian, Inc., Wallingford CT, 2019.
 
 ******************************************
 Gaussian 16:  ES64L-G16RevC.01  3-Jul-2019
                30-Jul-2020 
 ******************************************
 %NprocShared=4
 Will use up to    4 processors via shared memory.
 %chk=checkpoint.chk
 ---------------------------------------------------------------
 # wB97xD/Gen Freq Opt=(VeryTight,ZMatrix,CalcAll) Int=UltraFine
 ---------------------------------------------------------------
 1/7=1,10=4,18=40,26=4,38=1/1,3;
 2/12=2,17=6,18=5,29=3,40=1/2;
 3/5=7,11=2,25=1,30=1,71=2,74=-58,75=-5,140=1/1,2,3;
 4//1;
 5/5=2,38=5/2;
 8/6=4,10=90,11=11/1;
 11/6=1,8=1,9=11,15=111,16=1/1,2,10;
 10/6=1/2;
 6/7=2,8=2,9=2,10=2,18=1,28=1/1;
 7/10=1,25=1/1,2,3,16;
 1/7=1,10=4,18=40,26=4/3(3);
 2/29=3/2;
 7/8=1,9=1,25=1,44=-1/16;
 99//99;
 2/29=3/2;
 3/5=7,6=1,11=2,25=1,30=1,71=2,74=-58,75=-5,82=7,140=1/1,2,3;
 4/5=5,16=3,69=1/1;
 5/5=2,38=5/2;
 8/6=4,10=90,11=11/1;
 11/6=1,8=1,9=11,15=111,16=1/1,2,10;
 10/6=1/2;
 7/10=1,25=1/1,2,3,16;
 1/7=1,10=4,18=40,26=4/3(-8);
 2/29=3/2;
 6/7=2,8=2,9=2,10=2,18=1,19=2,28=1/1;
 7/8=1,9=1,25=1,44=-1/16;
 99//99;
 -----------------------------------
 CFC-22 - HClF2 HARMONIC FREQUENCIES
 -----------------------------------
 Symbolic Z-matrix:
 Charge =  0 Multiplicity = 1
 C
 F                    1    r2
 Cl                   1    r3       2    a3
 F                    1    r4       2    a4       3    d4       0
 H                    1    r5       2    a5       3    d5       0
       Variables:
  r2                    1.3554                   
  r3                    1.7607                   
  a3                  110.09                     
  r4                    1.3552                   
  a4                  107.02                     
  d4                  240.09                     
  r5                    1.0931                   
  a5                  109.45                     
  d5                  121.56                     
 

 GradGradGradGradGradGradGradGradGradGradGradGradGradGradGradGradGradGrad
 Berny optimization.
 Initialization pass.
                       ----------------------------
                       !    Initial Parameters    !
                       ! (Angstroms and Degrees)  !
 ----------------------                            ----------------------
 !      Name          Value   Derivative information (Atomic Units)     !
 ------------------------------------------------------------------------
 !       r2          1.3554   calculate D2E/DX2 analytically            !
 !       r3          1.7607   calculate D2E/DX2 analytically            !
 !       a3        110.09     calculate D2E/DX2 analytically            !
 !       r4          1.3552   calculate D2E/DX2 analytically            !
 !       a4        107.02     calculate D2E/DX2 analytically            !
 !       d4        240.09     calculate D2E/DX2 analytically            !
 !       r5          1.0931   calculate D2E/DX2 analytically            !
 !       a5        109.45     calculate D2E/DX2 analytically            !
 !       d5        121.56     calculate D2E/DX2 analytically            !
 ------------------------------------------------------------------------
 Trust Radius=3.00D-01 FncErr=1.00D-07 GrdErr=1.00D-06 EigMax=2.50D+02 EigMin=1.00D-04
 Number of steps in this run=     20 maximum allowed number of steps=    100.
 GradGradGradGradGradGradGradGradGradGradGradGradGradGradGradGradGradGrad

 ---------------------------------------------------------------------------------------------------
                            Z-MATRIX (ANGSTROMS AND DEGREES)
   CD    Cent   Atom    N1       Length/X        N2       Alpha/Y        N3        Beta/Z          J
 ---------------------------------------------------------------------------------------------------
      1      1  C 
      2      2  F        1   1.355400(     1)
      3      3  Cl       1   1.760700(     2)      2  110.090(     5)
      4      4  F        1   1.355200(     3)      2  107.020(     6)      3  240.090(     8)      0
      5      5  H        1   1.093100(     4)      2  109.450(     7)      3  121.560(     9)      0
 ---------------------------------------------------------------------------------------------------
                         Z-Matrix orientation:                         
 ---------------------------------------------------------------------
 Center     Atomic      Atomic             Coordinates (Angstroms)
 Number     Number       Type             X           Y           Z
 ---------------------------------------------------------------------
      1          6           0        0.000000    0.000000    0.000000
      2          9           0        0.000000    0.000000    1.355400
      3         17           0        1.653569    0.000000   -0.604793
      4          9           0       -0.646159    1.123252   -0.396674
      5          1           0       -0.539469   -0.878268   -0.363985
 ---------------------------------------------------------------------
                    Distance matrix (angstroms):
                    1          2          3          4          5
     1  C    0.000000
     2  F    1.355400   0.000000
     3  Cl   1.760700   2.564497   0.000000
     4  F    1.355200   2.179216   2.567831   0.000000
     5  H    1.093100   2.004661   2.374607   2.004628   0.000000
 Stoichiometry    CHClF2
 Framework group  C1[X(CHClF2)]
 Deg. of freedom     9
 Full point group                 C1      NOp   1
 Largest Abelian subgroup         C1      NOp   1
 Largest concise Abelian subgroup C1      NOp   1
                         Standard orientation:                         
 ---------------------------------------------------------------------
 Center     Atomic      Atomic             Coordinates (Angstroms)
 Number     Number       Type             X           Y           Z
 ---------------------------------------------------------------------
      1          6           0       -0.426688   -0.000436    0.369956
      2          9           0       -1.035069    1.091321   -0.154494
      3         17           0        1.282607   -0.001656   -0.052387
      4          9           0       -1.041902   -1.087884   -0.154958
      5          1           0       -0.551457   -0.000181    1.455912
 ---------------------------------------------------------------------
 Rotational constants (GHZ):          10.1387353           4.7793807           3.4587103
 General basis read from cards:  (5D, 7F)
 There are   113 symmetry adapted cartesian basis functions of A   symmetry.
 There are   105 symmetry adapted basis functions of A   symmetry.
   105 basis functions,   207 primitive gaussians,   113 cartesian basis functions
    21 alpha electrons       21 beta electrons
       nuclear repulsion energy       167.0397416283 Hartrees.
 NAtoms=    5 NActive=    5 NUniq=    5 SFac= 1.00D+00 NAtFMM=   60 NAOKFM=F Big=F
 Integral buffers will be    131072 words long.
 Raffenetti 2 integral format.
 Two-electron integral symmetry is turned on.
 Nuclear repulsion after empirical dispersion term =      167.0392901881 Hartrees.
 One-electron integrals computed using PRISM.
 NBasis=   105 RedAO= T EigKep=  1.26D-03  NBF=   105
 NBsUse=   105 1.00D-06 EigRej= -1.00D+00 NBFU=   105
 ExpMin= 2.56D-02 ExpMax= 6.35D+04 ExpMxC= 2.17D+03 IAcc=3 IRadAn=         5 AccDes= 0.00D+00
 Harris functional with IExCor= 4639 and IRadAn=       5 diagonalized for initial guess.
 HarFok:  IExCor= 4639 AccDes= 0.00D+00 IRadAn=         5 IDoV= 1 UseB2=F ITyADJ=14
 ICtDFT=  3500011 ScaDFX=  1.000000  1.000000  1.000000  1.000000
 FoFCou: FMM=F IPFlag=           0 FMFlag=      100000 FMFlg1=           0
         NFxFlg=           0 DoJE=T BraDBF=F KetDBF=T FulRan=T
         wScrn=  0.000000 ICntrl=       500 IOpCl=  0 I1Cent=   200000004 NGrid=           0
         NMat0=    1 NMatS0=      1 NMatT0=    0 NMatD0=    1 NMtDS0=    0 NMtDT0=    0
 Petite list used in FoFCou.
 Keep R1 ints in memory in canonical form, NReq=35327257.
 Requested convergence on RMS density matrix=1.00D-08 within 128 cycles.
 Requested convergence on MAX density matrix=1.00D-06.
 Requested convergence on             energy=1.00D-06.
 No special actions if energy rises.
 SCF Done:  E(RwB97XD) =  -698.485764237     A.U. after   12 cycles
            NFock= 12  Conv=0.86D-08     -V/T= 2.0016
 DoSCS=F DFT=T ScalE2(SS,OS)=  1.000000  1.000000
 Range of M.O.s used for correlation:     1   105
 NBasis=   105 NAE=    21 NBE=    21 NFC=     0 NFV=     0
 NROrb=    105 NOA=    21 NOB=    21 NVA=    84 NVB=    84
 Symmetrizing basis deriv contribution to polar:
 IMax=3 JMax=2 DiffMx= 0.00D+00
 G2DrvN: will do     6 centers at a time, making    1 passes.
 Calling FoFCou, ICntrl=  3107 FMM=F I1Cent=   0 AccDes= 0.00D+00.
 End of G2Drv F.D. properties file   721 does not exist.
 End of G2Drv F.D. properties file   722 does not exist.
 End of G2Drv F.D. properties file   788 does not exist.
          IDoAtm=11111
          Differentiating once with respect to electric field.
                with respect to dipole field.
          Differentiating once with respect to nuclear coordinates.
 Keep R1 ints in memory in canonical form, NReq=35318136.
          There are    18 degrees of freedom in the 1st order CPHF.  IDoFFX=6 NUNeed=     3.
     15 vectors produced by pass  0 Test12= 9.80D-15 5.56D-09 XBig12= 1.41D+01 1.58D+00.
 AX will form    15 AO Fock derivatives at one time.
     15 vectors produced by pass  1 Test12= 9.80D-15 5.56D-09 XBig12= 1.82D+00 3.30D-01.
     15 vectors produced by pass  2 Test12= 9.80D-15 5.56D-09 XBig12= 1.22D-01 7.19D-02.
     15 vectors produced by pass  3 Test12= 9.80D-15 5.56D-09 XBig12= 1.58D-03 8.99D-03.
     15 vectors produced by pass  4 Test12= 9.80D-15 5.56D-09 XBig12= 2.54D-05 9.28D-04.
     15 vectors produced by pass  5 Test12= 9.80D-15 5.56D-09 XBig12= 2.21D-07 1.47D-04.
     15 vectors produced by pass  6 Test12= 9.80D-15 5.56D-09 XBig12= 1.45D-09 9.05D-06.
      5 vectors produced by pass  7 Test12= 9.80D-15 5.56D-09 XBig12= 1.07D-11 8.94D-07.
      3 vectors produced by pass  8 Test12= 9.80D-15 5.56D-09 XBig12= 7.22D-14 6.68D-08.
 InvSVY:  IOpt=1 It=  1 EMax= 1.78D-15
 Solved reduced A of dimension   113 with    15 vectors.
 Isotropic polarizability for W=    0.000000       31.27 Bohr**3.
 End of Minotr F.D. properties file   721 does not exist.
 End of Minotr F.D. properties file   722 does not exist.
 End of Minotr F.D. properties file   788 does not exist.

 **********************************************************************

            Population analysis using the SCF Density.

 **********************************************************************

 Orbital symmetries:
       Occupied  (A) (A) (A) (A) (A) (A) (A) (A) (A) (A) (A) (A)
                 (A) (A) (A) (A) (A) (A) (A) (A) (A)
       Virtual   (A) (A) (A) (A) (A) (A) (A) (A) (A) (A) (A) (A)
                 (A) (A) (A) (A) (A) (A) (A) (A) (A) (A) (A) (A)
                 (A) (A) (A) (A) (A) (A) (A) (A) (A) (A) (A) (A)
                 (A) (A) (A) (A) (A) (A) (A) (A) (A) (A) (A) (A)
                 (A) (A) (A) (A) (A) (A) (A) (A) (A) (A) (A) (A)
                 (A) (A) (A) (A) (A) (A) (A) (A) (A) (A) (A) (A)
                 (A) (A) (A) (A) (A) (A) (A) (A) (A) (A) (A) (A)
 The electronic state is 1-A.
 Alpha  occ. eigenvalues -- -101.70769 -24.85381 -24.85356 -10.53332  -9.60870
 Alpha  occ. eigenvalues --   -7.35585  -7.34533  -7.34520  -1.40739  -1.34523
 Alpha  occ. eigenvalues --   -0.99313  -0.80967  -0.69001  -0.68181  -0.64647
 Alpha  occ. eigenvalues --   -0.55487  -0.54537  -0.52954  -0.47889  -0.43263
 Alpha  occ. eigenvalues --   -0.43052
 Alpha virt. eigenvalues --    0.03329   0.05877   0.07567   0.07676   0.08717
 Alpha virt. eigenvalues --    0.12283   0.12920   0.13327   0.14668   0.16588
 Alpha virt. eigenvalues --    0.16881   0.18496   0.20128   0.22924   0.24135
 Alpha virt. eigenvalues --    0.24856   0.26415   0.27565   0.27673   0.28912
 Alpha virt. eigenvalues --    0.31246   0.31282   0.32357   0.34335   0.39644
 Alpha virt. eigenvalues --    0.39660   0.41718   0.43484   0.44647   0.44932
 Alpha virt. eigenvalues --    0.49363   0.49404   0.51265   0.53595   0.66017
 Alpha virt. eigenvalues --    0.66794   0.68704   0.73338   0.76963   0.79123
 Alpha virt. eigenvalues --    0.81368   0.82998   0.83630   0.84391   0.84606
 Alpha virt. eigenvalues --    0.92279   0.94734   0.94891   0.98171   0.99067
 Alpha virt. eigenvalues --    1.00230   1.02934   1.03649   1.10980   1.14250
 Alpha virt. eigenvalues --    1.18551   1.37983   1.46162   1.46735   1.62338
 Alpha virt. eigenvalues --    1.65690   1.80321   1.87684   1.89527   1.97808
 Alpha virt. eigenvalues --    2.05909   2.10286   2.12248   2.22993   2.35798
 Alpha virt. eigenvalues --    2.46910   2.69740   2.78544   2.81990   2.84420
 Alpha virt. eigenvalues --    2.86364   2.87333   2.91443   3.01216   3.13008
 Alpha virt. eigenvalues --    3.23490   3.26523   3.53708   3.62350
          Condensed to atoms (all electrons):
               1          2          3          4          5
     1  C    4.272332  -0.118150   0.281174  -0.118551   0.372027
     2  F   -0.118150   9.980811  -0.101618  -0.074212  -0.106217
     3  Cl   0.281174  -0.101618  17.508965  -0.101150  -0.124587
     4  F   -0.118551  -0.074212  -0.101150   9.981045  -0.106940
     5  H    0.372027  -0.106217  -0.124587  -0.106940   0.653294
 Mulliken charges:
               1
     1  C    1.311168
     2  F   -0.580613
     3  Cl  -0.462786
     4  F   -0.580192
     5  H    0.312423
 Sum of Mulliken charges =  -0.00000
 Mulliken charges with hydrogens summed into heavy atoms:
               1
     1  C    1.623591
     2  F   -0.580613
     3  Cl  -0.462786
     4  F   -0.580192
 APT charges:
               1
     1  C    1.405153
     2  F   -0.539420
     3  Cl  -0.309201
     4  F   -0.539458
     5  H   -0.017075
 Sum of APT charges =  -0.00000
 APT charges with hydrogens summed into heavy atoms:
               1
     1  C    1.388079
     2  F   -0.539420
     3  Cl  -0.309201
     4  F   -0.539458
 Electronic spatial extent (au):  <R**2>=            326.7603
 Charge=             -0.0000 electrons
 Dipole moment (field-independent basis, Debye):
    X=              0.1386    Y=             -0.0034    Z=              1.4865  Tot=              1.4930
 Quadrupole moment (field-independent basis, Debye-Ang):
   XX=            -28.9240   YY=            -30.4758   ZZ=            -26.7612
   XY=              0.0020   XZ=             -1.4762   YZ=              0.0003
 Traceless Quadrupole moment (field-independent basis, Debye-Ang):
   XX=             -0.2037   YY=             -1.7555   ZZ=              1.9592
   XY=              0.0020   XZ=             -1.4762   YZ=              0.0003
 Octapole moment (field-independent basis, Debye-Ang**2):
  XXX=             -4.6828  YYY=              0.0131  ZZZ=              0.8130  XYY=             -2.2593
  XXY=              0.0118  XXZ=             -1.4389  XZZ=             -4.8662  YZZ=              0.0072
  YYZ=             -0.6608  XYZ=              0.0011
 Hexadecapole moment (field-independent basis, Debye-Ang**3):
 XXXX=           -208.3067 YYYY=            -98.3688 ZZZZ=            -36.8734 XXXY=              0.0190
 XXXZ=             -2.0892 YYYX=              0.0317 YYYZ=             -0.0051 ZZZX=             -0.3835
 ZZZY=              0.0018 XXYY=            -54.8288 XXZZ=            -43.3422 YYZZ=            -22.9431
 XXYZ=              0.0068 YYXZ=              0.9138 ZZXY=              0.0096
 N-N= 1.670392901881D+02 E-N=-1.995055777260D+03  KE= 6.973823783536D+02
  Exact polarizability:      36.914      -0.000      29.127      -1.042      -0.001      27.760
 Approx polarizability:      39.014       0.008      31.883      -1.064      -0.002      30.090
 Calling FoFJK, ICntrl=    100127 FMM=F ISym2X=0 I1Cent= 0 IOpClX= 0 NMat=1 NMatS=1 NMatT=0.
 ***** Axes restored to original set *****
 -------------------------------------------------------------------
 Center     Atomic                   Forces (Hartrees/Bohr)
 Number     Number              X              Y              Z
 -------------------------------------------------------------------
      1        6          -0.011272697    0.008419680    0.009972937
      2        9           0.002269601   -0.001036550   -0.010696702
      3       17           0.000637946    0.000829910   -0.000035833
      4        9           0.007026075   -0.008674110    0.001018291
      5        1           0.001339075    0.000461070   -0.000258694
 -------------------------------------------------------------------
 Cartesian Forces:  Max     0.011272697 RMS     0.006038110
 -----------------------------------------------------------------------------------------------
                       Internal Coordinate Forces (Hartree/Bohr or radian)
  Cent   Atom   N1       Length/X         N2         Alpha/Y        N3         Beta/Z          J
 -----------------------------------------------------------------------------------------------
      1  C 
      2  F        1  -0.010697(     1)
      3  Cl       1   0.000611(     2)      2  -0.000617(     5)
      4  F        1  -0.010838(     3)      2   0.005769(     6)      3   0.004322(     8)     0
      5  H        1  -0.000945(     4)      2   0.001256(     7)      3  -0.001752(     9)     0
 -----------------------------------------------------------------------------------------------
 Internal  Forces:  Max     0.010837591 RMS     0.005677732

 GradGradGradGradGradGradGradGradGradGradGradGradGradGradGradGradGradGrad
 Berny optimization.
 Search for a local minimum.
 Step number   1 out of a maximum of   20
 All quantities printed in internal units (Hartrees-Bohrs-Radians)
 Second derivative matrix not updated -- analytic derivatives used.
 The second derivative matrix:
                          r2        r3        a3        r4        a4
           r2           0.36545
           r3           0.04092   0.23197
           a3           0.06060   0.00316   0.37511
           r4           0.05280   0.04065  -0.03005   0.36568
           a4           0.07106  -0.02708   0.09444   0.00806   0.45442
           d4           0.00363  -0.04553   0.06421   0.01045   0.02222
           r5           0.01085   0.00433  -0.00101   0.01086  -0.00260
           a5           0.06946  -0.02698   0.06458  -0.03007   0.06855
           d5          -0.00159   0.04166  -0.03942  -0.05908   0.05311
                          d4        r5        a5        d5
           d4           0.34314
           r5           0.00722   0.35259
           a5          -0.04594   0.00367   0.26583
           d5          -0.13396  -0.00566   0.00567   0.23028
 ITU=  0
     Eigenvalues ---    0.10968   0.15735   0.24525   0.26363   0.33954
     Eigenvalues ---    0.35121   0.42904   0.48312   0.60565
 RFO step:  Lambda=-9.34575178D-04 EMin= 1.09683640D-01
 Linear search not attempted -- first point.
 Variable       Old X    -DE/DX   Delta X   Delta X   Delta X     New X
                                 (Linear)    (Quad)   (Total)
    r2        2.56133  -0.01070   0.00000  -0.03206  -0.03206   2.52928
    r3        3.32724   0.00061   0.00000   0.02373   0.02373   3.35097
    a3        1.92143  -0.00062   0.00000  -0.01075  -0.01075   1.91068
    r4        2.56096  -0.01084   0.00000  -0.03169  -0.03169   2.52926
    a4        1.86785   0.00577   0.00000   0.02211   0.02211   1.88997
    d4        4.19036   0.00432   0.00000   0.01089   0.01089   4.20125
    r5        2.06566  -0.00095   0.00000  -0.00155  -0.00155   2.06411
    a5        1.91026   0.00126   0.00000   0.01115   0.01115   1.92141
    d5        2.12162  -0.00175   0.00000  -0.02109  -0.02109   2.10053
         Item               Value     Threshold  Converged?
 Maximum Force            0.010838     0.000002     NO 
 RMS     Force            0.005678     0.000001     NO 
 Maximum Displacement     0.032056     0.000006     NO 
 RMS     Displacement     0.020789     0.000004     NO 
 Predicted change in Energy=-4.691051D-04
 GradGradGradGradGradGradGradGradGradGradGradGradGradGradGradGradGradGrad

 ---------------------------------------------------------------------------------------------------
                            Z-MATRIX (ANGSTROMS AND DEGREES)
   CD    Cent   Atom    N1       Length/X        N2       Alpha/Y        N3        Beta/Z          J
 ---------------------------------------------------------------------------------------------------
      1      1  C 
      2      2  F        1   1.338437(     1)
      3      3  Cl       1   1.773257(     2)      2  109.474(     5)
      4      4  F        1   1.338429(     3)      2  108.287(     6)      3  240.714(     8)      0
      5      5  H        1   1.092280(     4)      2  110.089(     7)      3  120.352(     9)      0
 ---------------------------------------------------------------------------------------------------
                         Z-Matrix orientation:                         
 ---------------------------------------------------------------------
 Center     Atomic      Atomic             Coordinates (Angstroms)
 Number     Number       Type             X           Y           Z
 ---------------------------------------------------------------------
      1          6           0        0.000000    0.000000    0.000000
      2          9           0        0.000000    0.000000    1.338437
      3         17           0        1.671813    0.000000   -0.591168
      4          9           0       -0.621652    1.108407   -0.419969
      5          1           0       -0.518358   -0.885227   -0.375171
 ---------------------------------------------------------------------
                    Distance matrix (angstroms):
                    1          2          3          4          5
     1  C    0.000000
     2  F    1.338437   0.000000
     3  Cl   1.773257   2.553103   0.000000
     4  F    1.338429   2.169565   2.553010   0.000000
     5  H    1.092280   1.997191   2.372158   1.996811   0.000000
 Stoichiometry    CHClF2
 Framework group  C1[X(CHClF2)]
 Deg. of freedom     9
 Full point group                 C1      NOp   1
 Largest Abelian subgroup         C1      NOp   1
 Largest concise Abelian subgroup C1      NOp   1
                         Standard orientation:                         
 ---------------------------------------------------------------------
 Center     Atomic      Atomic             Coordinates (Angstroms)
 Number     Number       Type             X           Y           Z
 ---------------------------------------------------------------------
      1          6           0       -0.444210    0.000004    0.366425
      2          9           0       -1.029454    1.084757   -0.155317
      3         17           0        1.279380    0.000047   -0.050317
      4          9           0       -1.029280   -1.084808   -0.155369
      5          1           0       -0.555596   -0.000376    1.453011
 ---------------------------------------------------------------------
 Rotational constants (GHZ):          10.2286973           4.8184731           3.4877448
 Basis read from rwf:  (5D, 7F)
 There are   113 symmetry adapted cartesian basis functions of A   symmetry.
 There are   105 symmetry adapted basis functions of A   symmetry.
   105 basis functions,   207 primitive gaussians,   113 cartesian basis functions
    21 alpha electrons       21 beta electrons
       nuclear repulsion energy       167.7898066487 Hartrees.
 NAtoms=    5 NActive=    5 NUniq=    5 SFac= 1.00D+00 NAtFMM=   60 NAOKFM=F Big=F
 Integral buffers will be    131072 words long.
 Raffenetti 2 integral format.
 Two-electron integral symmetry is turned on.
 Nuclear repulsion after empirical dispersion term =      167.7893647680 Hartrees.
 One-electron integrals computed using PRISM.
 NBasis=   105 RedAO= T EigKep=  1.26D-03  NBF=   105
 NBsUse=   105 1.00D-06 EigRej= -1.00D+00 NBFU=   105
 Initial guess from the checkpoint file:  "checkpoint.chk"
 B after Tr=    -0.000000    0.000000   -0.000000
         Rot=    0.999999    0.000164    0.001296   -0.000979 Ang=   0.19 deg.
 ExpMin= 2.56D-02 ExpMax= 6.35D+04 ExpMxC= 2.17D+03 IAcc=3 IRadAn=         5 AccDes= 0.00D+00
 Harris functional with IExCor= 4639 and IRadAn=       5 diagonalized for initial guess.
 HarFok:  IExCor= 4639 AccDes= 0.00D+00 IRadAn=         5 IDoV= 1 UseB2=F ITyADJ=14
 ICtDFT=  3500011 ScaDFX=  1.000000  1.000000  1.000000  1.000000
 FoFCou: FMM=F IPFlag=           0 FMFlag=      100000 FMFlg1=           0
         NFxFlg=           0 DoJE=T BraDBF=F KetDBF=T FulRan=T
         wScrn=  0.000000 ICntrl=       500 IOpCl=  0 I1Cent=   200000004 NGrid=           0
         NMat0=    1 NMatS0=      1 NMatT0=    0 NMatD0=    1 NMtDS0=    0 NMtDT0=    0
 Petite list used in FoFCou.
 Keep R1 ints in memory in canonical form, NReq=35327257.
 Requested convergence on RMS density matrix=1.00D-08 within 128 cycles.
 Requested convergence on MAX density matrix=1.00D-06.
 Requested convergence on             energy=1.00D-06.
 No special actions if energy rises.
 SCF Done:  E(RwB97XD) =  -698.486220339     A.U. after   10 cycles
            NFock= 10  Conv=0.47D-08     -V/T= 2.0015
 DoSCS=F DFT=T ScalE2(SS,OS)=  1.000000  1.000000
 Range of M.O.s used for correlation:     1   105
 NBasis=   105 NAE=    21 NBE=    21 NFC=     0 NFV=     0
 NROrb=    105 NOA=    21 NOB=    21 NVA=    84 NVB=    84
 Symmetrizing basis deriv contribution to polar:
 IMax=3 JMax=2 DiffMx= 0.00D+00
 G2DrvN: will do     6 centers at a time, making    1 passes.
 Calling FoFCou, ICntrl=  3107 FMM=F I1Cent=   0 AccDes= 0.00D+00.
 End of G2Drv F.D. properties file   721 does not exist.
 End of G2Drv F.D. properties file   722 does not exist.
 End of G2Drv F.D. properties file   788 does not exist.
          IDoAtm=11111
          Differentiating once with respect to electric field.
                with respect to dipole field.
          Differentiating once with respect to nuclear coordinates.
 Keep R1 ints in memory in canonical form, NReq=35318136.
          There are    18 degrees of freedom in the 1st order CPHF.  IDoFFX=6 NUNeed=     3.
     15 vectors produced by pass  0 Test12= 9.80D-15 5.56D-09 XBig12= 1.42D+01 1.67D+00.
 AX will form    15 AO Fock derivatives at one time.
     15 vectors produced by pass  1 Test12= 9.80D-15 5.56D-09 XBig12= 1.83D+00 3.31D-01.
     15 vectors produced by pass  2 Test12= 9.80D-15 5.56D-09 XBig12= 1.18D-01 7.20D-02.
     15 vectors produced by pass  3 Test12= 9.80D-15 5.56D-09 XBig12= 1.49D-03 9.06D-03.
     15 vectors produced by pass  4 Test12= 9.80D-15 5.56D-09 XBig12= 2.33D-05 8.78D-04.
     15 vectors produced by pass  5 Test12= 9.80D-15 5.56D-09 XBig12= 1.82D-07 1.24D-04.
     15 vectors produced by pass  6 Test12= 9.80D-15 5.56D-09 XBig12= 1.14D-09 6.97D-06.
      6 vectors produced by pass  7 Test12= 9.80D-15 5.56D-09 XBig12= 8.36D-12 6.22D-07.
      3 vectors produced by pass  8 Test12= 9.80D-15 5.56D-09 XBig12= 5.41D-14 4.83D-08.
 InvSVY:  IOpt=1 It=  1 EMax= 1.11D-15
 Solved reduced A of dimension   114 with    15 vectors.
 Isotropic polarizability for W=    0.000000       31.23 Bohr**3.
 End of Minotr F.D. properties file   721 does not exist.
 End of Minotr F.D. properties file   722 does not exist.
 End of Minotr F.D. properties file   788 does not exist.
 Calling FoFJK, ICntrl=    100127 FMM=F ISym2X=0 I1Cent= 0 IOpClX= 0 NMat=1 NMatS=1 NMatT=0.
 ***** Axes restored to original set *****
 -------------------------------------------------------------------
 Center     Atomic                   Forces (Hartrees/Bohr)
 Number     Number              X              Y              Z
 -------------------------------------------------------------------
      1        6           0.000040756   -0.000527738   -0.000386394
      2        9           0.000001378    0.000000738    0.000625641
      3       17           0.000225852   -0.000008357   -0.000071758
      4        9          -0.000297998    0.000577706   -0.000184103
      5        1           0.000030012   -0.000042349    0.000016614
 -------------------------------------------------------------------
 Cartesian Forces:  Max     0.000625641 RMS     0.000298500
 -----------------------------------------------------------------------------------------------
                       Internal Coordinate Forces (Hartree/Bohr or radian)
  Cent   Atom   N1       Length/X         N2         Alpha/Y        N3         Beta/Z          J
 -----------------------------------------------------------------------------------------------
      1  C 
      2  F        1   0.000626(     1)
      3  Cl       1   0.000237(     2)      2  -0.000026(     5)
      4  F        1   0.000675(     3)      2  -0.000073(     6)      3   0.000054(     8)     0
      5  H        1   0.000014(     4)      2  -0.000047(     7)      3  -0.000092(     9)     0
 -----------------------------------------------------------------------------------------------
 Internal  Forces:  Max     0.000674598 RMS     0.000320153

 GradGradGradGradGradGradGradGradGradGradGradGradGradGradGradGradGradGrad
 Berny optimization.
 Search for a local minimum.
 Step number   2 out of a maximum of   20
 All quantities printed in internal units (Hartrees-Bohrs-Radians)
 Second derivative matrix not updated -- analytic derivatives used.
 DE= -4.56D-04 DEPred=-4.69D-04 R= 9.72D-01
 TightC=F SS=  1.41D+00  RLast= 6.24D-02 DXNew= 5.0454D-01 1.8710D-01
 Trust test= 9.72D-01 RLast= 6.24D-02 DXMaxT set to 3.00D-01
 The second derivative matrix:
                          r2        r3        a3        r4        a4
           r2           0.40671
           r3           0.04242   0.22252
           a3           0.06287   0.00352   0.38679
           r4           0.05434   0.04243  -0.03209   0.40677
           a4           0.07104  -0.02811   0.09897   0.00477   0.46129
           d4           0.00426  -0.04885   0.06884   0.00771   0.02166
           r5           0.01157   0.00452  -0.00095   0.01159  -0.00316
           a5           0.07010  -0.02666   0.06332  -0.03236   0.07267
           d5          -0.00212   0.04273  -0.04057  -0.05852   0.05451
                          d4        r5        a5        d5
           d4           0.34895
           r5           0.00778   0.35405
           a5          -0.04867   0.00394   0.27117
           d5          -0.13199  -0.00635   0.00912   0.22962
 ITU=  1  0
     Eigenvalues ---    0.11356   0.15449   0.25184   0.27635   0.34837
     Eigenvalues ---    0.35886   0.46576   0.49281   0.62584
 RFO step:  Lambda=-8.47142550D-07 EMin= 1.13557675D-01
 Quintic linear search produced a step of -0.03487.
 Variable       Old X    -DE/DX   Delta X   Delta X   Delta X     New X
                                 (Linear)    (Quad)   (Total)
    r2        2.52928   0.00063   0.00112   0.00030   0.00142   2.53070
    r3        3.35097   0.00024  -0.00083   0.00141   0.00059   3.35156
    a3        1.91068  -0.00003   0.00037  -0.00051  -0.00013   1.91055
    r4        2.52926   0.00067   0.00111   0.00032   0.00142   2.53069
    a4        1.88997  -0.00007  -0.00077   0.00046  -0.00031   1.88966
    d4        4.20125   0.00005  -0.00038   0.00061   0.00024   4.20149
    r5        2.06411   0.00001   0.00005  -0.00012  -0.00007   2.06404
    a5        1.92141  -0.00005  -0.00039   0.00024  -0.00015   1.92126
    d5        2.10053  -0.00009   0.00074  -0.00072   0.00001   2.10055
         Item               Value     Threshold  Converged?
 Maximum Force            0.000675     0.000002     NO 
 RMS     Force            0.000320     0.000001     NO 
 Maximum Displacement     0.001423     0.000006     NO 
 RMS     Displacement     0.000713     0.000004     NO 
 Predicted change in Energy=-9.914024D-07
 GradGradGradGradGradGradGradGradGradGradGradGradGradGradGradGradGradGrad

 ---------------------------------------------------------------------------------------------------
                            Z-MATRIX (ANGSTROMS AND DEGREES)
   CD    Cent   Atom    N1       Length/X        N2       Alpha/Y        N3        Beta/Z          J
 ---------------------------------------------------------------------------------------------------
      1      1  C 
      2      2  F        1   1.339187(     1)
      3      3  Cl       1   1.773567(     2)      2  109.466(     5)
      4      4  F        1   1.339182(     3)      2  108.269(     6)      3  240.728(     8)      0
      5      5  H        1   1.092245(     4)      2  110.080(     7)      3  120.353(     9)      0
 ---------------------------------------------------------------------------------------------------
                         Z-Matrix orientation:                         
 ---------------------------------------------------------------------
 Center     Atomic      Atomic             Coordinates (Angstroms)
 Number     Number       Type             X           Y           Z
 ---------------------------------------------------------------------
      1          6           0        0.000000    0.000000    0.000000
      2          9           0        0.000000    0.000000    1.339187
      3         17           0        1.672184    0.000000   -0.591050
      4          9           0       -0.621804    1.109290   -0.419814
      5          1           0       -0.518382   -0.885240   -0.375004
 ---------------------------------------------------------------------
                    Distance matrix (angstroms):
                    1          2          3          4          5
     1  C    0.000000
     2  F    1.339187   0.000000
     3  Cl   1.773567   2.553823   0.000000
     4  F    1.339182   2.170541   2.553865   0.000000
     5  H    1.092245   1.997704   2.372532   1.997713   0.000000
 Stoichiometry    CHClF2
 Framework group  C1[X(CHClF2)]
 Deg. of freedom     9
 Full point group                 C1      NOp   1
 Largest Abelian subgroup         C1      NOp   1
 Largest concise Abelian subgroup C1      NOp   1
                         Standard orientation:                         
 ---------------------------------------------------------------------
 Center     Atomic      Atomic             Coordinates (Angstroms)
 Number     Number       Type             X           Y           Z
 ---------------------------------------------------------------------
      1          6           0       -0.444118   -0.000006    0.366784
      2          9           0       -1.029656    1.085292   -0.155418
      3         17           0        1.279690   -0.000021   -0.050381
      4          9           0       -1.029742   -1.085249   -0.155423
      5          1           0       -0.555447    0.000008    1.453340
 ---------------------------------------------------------------------
 Rotational constants (GHZ):          10.2192846           4.8158208           3.4855131
 Basis read from rwf:  (5D, 7F)
 There are   113 symmetry adapted cartesian basis functions of A   symmetry.
 There are   105 symmetry adapted basis functions of A   symmetry.
   105 basis functions,   207 primitive gaussians,   113 cartesian basis functions
    21 alpha electrons       21 beta electrons
       nuclear repulsion energy       167.7298572501 Hartrees.
 NAtoms=    5 NActive=    5 NUniq=    5 SFac= 1.00D+00 NAtFMM=   60 NAOKFM=F Big=F
 Integral buffers will be    131072 words long.
 Raffenetti 2 integral format.
 Two-electron integral symmetry is turned on.
 Nuclear repulsion after empirical dispersion term =      167.7294145908 Hartrees.
 One-electron integrals computed using PRISM.
 NBasis=   105 RedAO= T EigKep=  1.26D-03  NBF=   105
 NBsUse=   105 1.00D-06 EigRej= -1.00D+00 NBFU=   105
 Initial guess from the checkpoint file:  "checkpoint.chk"
 B after Tr=     0.000000   -0.000000   -0.000000
         Rot=    1.000000    0.000019   -0.000021    0.000036 Ang=   0.01 deg.
 Keep R1 ints in memory in canonical form, NReq=35327257.
 Requested convergence on RMS density matrix=1.00D-08 within 128 cycles.
 Requested convergence on MAX density matrix=1.00D-06.
 Requested convergence on             energy=1.00D-06.
 No special actions if energy rises.
 SCF Done:  E(RwB97XD) =  -698.486221334     A.U. after    8 cycles
            NFock=  8  Conv=0.20D-08     -V/T= 2.0015
 DoSCS=F DFT=T ScalE2(SS,OS)=  1.000000  1.000000
 Range of M.O.s used for correlation:     1   105
 NBasis=   105 NAE=    21 NBE=    21 NFC=     0 NFV=     0
 NROrb=    105 NOA=    21 NOB=    21 NVA=    84 NVB=    84
 Symmetrizing basis deriv contribution to polar:
 IMax=3 JMax=2 DiffMx= 0.00D+00
 G2DrvN: will do     6 centers at a time, making    1 passes.
 Calling FoFCou, ICntrl=  3107 FMM=F I1Cent=   0 AccDes= 0.00D+00.
 End of G2Drv F.D. properties file   721 does not exist.
 End of G2Drv F.D. properties file   722 does not exist.
 End of G2Drv F.D. properties file   788 does not exist.
          IDoAtm=11111
          Differentiating once with respect to electric field.
                with respect to dipole field.
          Differentiating once with respect to nuclear coordinates.
 Keep R1 ints in memory in canonical form, NReq=35318136.
          There are    18 degrees of freedom in the 1st order CPHF.  IDoFFX=6 NUNeed=     3.
     15 vectors produced by pass  0 Test12= 9.80D-15 5.56D-09 XBig12= 1.42D+01 1.68D+00.
 AX will form    15 AO Fock derivatives at one time.
     15 vectors produced by pass  1 Test12= 9.80D-15 5.56D-09 XBig12= 1.83D+00 3.31D-01.
     15 vectors produced by pass  2 Test12= 9.80D-15 5.56D-09 XBig12= 1.18D-01 7.21D-02.
     15 vectors produced by pass  3 Test12= 9.80D-15 5.56D-09 XBig12= 1.50D-03 9.10D-03.
     15 vectors produced by pass  4 Test12= 9.80D-15 5.56D-09 XBig12= 2.34D-05 8.81D-04.
     15 vectors produced by pass  5 Test12= 9.80D-15 5.56D-09 XBig12= 1.83D-07 1.25D-04.
     15 vectors produced by pass  6 Test12= 9.80D-15 5.56D-09 XBig12= 1.15D-09 7.06D-06.
      6 vectors produced by pass  7 Test12= 9.80D-15 5.56D-09 XBig12= 8.45D-12 6.31D-07.
      3 vectors produced by pass  8 Test12= 9.80D-15 5.56D-09 XBig12= 5.45D-14 4.84D-08.
 InvSVY:  IOpt=1 It=  1 EMax= 9.99D-16
 Solved reduced A of dimension   114 with    15 vectors.
 Isotropic polarizability for W=    0.000000       31.24 Bohr**3.
 End of Minotr F.D. properties file   721 does not exist.
 End of Minotr F.D. properties file   722 does not exist.
 End of Minotr F.D. properties file   788 does not exist.
 Calling FoFJK, ICntrl=    100127 FMM=F ISym2X=0 I1Cent= 0 IOpClX= 0 NMat=1 NMatS=1 NMatT=0.
 ***** Axes restored to original set *****
 -------------------------------------------------------------------
 Center     Atomic                   Forces (Hartrees/Bohr)
 Number     Number              X              Y              Z
 -------------------------------------------------------------------
      1        6           0.000023009    0.000001919    0.000000870
      2        9          -0.000007474    0.000001913   -0.000010953
      3       17          -0.000014597    0.000004818    0.000003720
      4        9           0.000003607   -0.000010899    0.000005552
      5        1          -0.000004546    0.000002248    0.000000811
 -------------------------------------------------------------------
 Cartesian Forces:  Max     0.000023009 RMS     0.000008765
 -----------------------------------------------------------------------------------------------
                       Internal Coordinate Forces (Hartree/Bohr or radian)
  Cent   Atom   N1       Length/X         N2         Alpha/Y        N3         Beta/Z          J
 -----------------------------------------------------------------------------------------------
      1  C 
      2  F        1  -0.000011(     1)
      3  Cl       1  -0.000015(     2)      2   0.000005(     5)
      4  F        1  -0.000012(     3)      2  -0.000004(     6)      3  -0.000005(     8)     0
      5  H        1   0.000000(     4)      2  -0.000002(     7)      3   0.000010(     9)     0
 -----------------------------------------------------------------------------------------------
 Internal  Forces:  Max     0.000015003 RMS     0.000008609

 GradGradGradGradGradGradGradGradGradGradGradGradGradGradGradGradGradGrad
 Berny optimization.
 Search for a local minimum.
 Step number   3 out of a maximum of   20
 All quantities printed in internal units (Hartrees-Bohrs-Radians)
 Second derivative matrix not updated -- analytic derivatives used.
 DE= -9.95D-07 DEPred=-9.91D-07 R= 1.00D+00
 Trust test= 1.00D+00 RLast= 2.14D-03 DXMaxT set to 3.00D-01
 The second derivative matrix:
                          r2        r3        a3        r4        a4
           r2           0.40468
           r3           0.04234   0.22207
           a3           0.06277   0.00351   0.38630
           r4           0.05419   0.04233  -0.03201   0.40468
           a4           0.07085  -0.02803   0.09877   0.00476   0.46042
           d4           0.00425  -0.04873   0.06871   0.00766   0.02162
           r5           0.01152   0.00450  -0.00094   0.01152  -0.00312
           a5           0.07002  -0.02662   0.06328  -0.03227   0.07251
           d5          -0.00212   0.04269  -0.04053  -0.05840   0.05441
                          d4        r5        a5        d5
           d4           0.34846
           r5           0.00772   0.35416
           a5          -0.04858   0.00393   0.27083
           d5          -0.13177  -0.00631   0.00909   0.22934
 ITU=  0  1  0
     Eigenvalues ---    0.11338   0.15418   0.25137   0.27556   0.34812
     Eigenvalues ---    0.35814   0.46395   0.49177   0.62447
 RFO step:  Lambda= 0.00000000D+00 EMin= 1.13380620D-01
 Quintic linear search produced a step of -0.02036.
 Variable       Old X    -DE/DX   Delta X   Delta X   Delta X     New X
                                 (Linear)    (Quad)   (Total)
    r2        2.53070  -0.00001  -0.00003   0.00001  -0.00001   2.53068
    r3        3.35156  -0.00002  -0.00001  -0.00007  -0.00008   3.35147
    a3        1.91055   0.00000   0.00000   0.00003   0.00003   1.91058
    r4        2.53069  -0.00001  -0.00003   0.00002  -0.00001   2.53068
    a4        1.88966  -0.00000   0.00001  -0.00003  -0.00002   1.88963
    d4        4.20149  -0.00001  -0.00000  -0.00001  -0.00001   4.20148
    r5        2.06404   0.00000   0.00000   0.00000   0.00000   2.06405
    a5        1.92126  -0.00000   0.00000  -0.00002  -0.00002   1.92124
    d5        2.10055   0.00001  -0.00000   0.00006   0.00006   2.10061
         Item               Value     Threshold  Converged?
 Maximum Force            0.000015     0.000002     NO 
 RMS     Force            0.000009     0.000001     NO 
 Maximum Displacement     0.000082     0.000006     NO 
 RMS     Displacement     0.000038     0.000004     NO 
 Predicted change in Energy=-1.223921D-09
 GradGradGradGradGradGradGradGradGradGradGradGradGradGradGradGradGradGrad

 ---------------------------------------------------------------------------------------------------
                            Z-MATRIX (ANGSTROMS AND DEGREES)
   CD    Cent   Atom    N1       Length/X        N2       Alpha/Y        N3        Beta/Z          J
 ---------------------------------------------------------------------------------------------------
      1      1  C 
      2      2  F        1   1.339179(     1)
      3      3  Cl       1   1.773523(     2)      2  109.468(     5)
      4      4  F        1   1.339177(     3)      2  108.268(     6)      3  240.727(     8)      0
      5      5  H        1   1.092246(     4)      2  110.079(     7)      3  120.356(     9)      0
 ---------------------------------------------------------------------------------------------------
                         Z-Matrix orientation:                         
 ---------------------------------------------------------------------
 Center     Atomic      Atomic             Coordinates (Angstroms)
 Number     Number       Type             X           Y           Z
 ---------------------------------------------------------------------
      1          6           0        0.000000    0.000000    0.000000
      2          9           0        0.000000    0.000000    1.339179
      3         17           0        1.672125    0.000000   -0.591087
      4          9           0       -0.621818    1.109288   -0.419783
      5          1           0       -0.518440   -0.885216   -0.374987
 ---------------------------------------------------------------------
                    Distance matrix (angstroms):
                    1          2          3          4          5
     1  C    0.000000
     2  F    1.339179   0.000000
     3  Cl   1.773523   2.553807   0.000000
     4  F    1.339177   2.170513   2.553828   0.000000
     5  H    1.092246   1.997687   2.372527   1.997683   0.000000
 Stoichiometry    CHClF2
 Framework group  C1[X(CHClF2)]
 Deg. of freedom     9
 Full point group                 C1      NOp   1
 Largest Abelian subgroup         C1      NOp   1
 Largest concise Abelian subgroup C1      NOp   1
                         Standard orientation:                         
 ---------------------------------------------------------------------
 Center     Atomic      Atomic             Coordinates (Angstroms)
 Number     Number       Type             X           Y           Z
 ---------------------------------------------------------------------
      1          6           0       -0.444091   -0.000003    0.366778
      2          9           0       -1.029670    1.085267   -0.155416
      3         17           0        1.279674   -0.000010   -0.050381
      4          9           0       -1.029713   -1.085245   -0.155419
      5          1           0       -0.555464   -0.000004    1.453331
 ---------------------------------------------------------------------
 Rotational constants (GHZ):          10.2195518           4.8159302           3.4855957
 Basis read from rwf:  (5D, 7F)
 There are   113 symmetry adapted cartesian basis functions of A   symmetry.
 There are   105 symmetry adapted basis functions of A   symmetry.
   105 basis functions,   207 primitive gaussians,   113 cartesian basis functions
    21 alpha electrons       21 beta electrons
       nuclear repulsion energy       167.7318029598 Hartrees.
 NAtoms=    5 NActive=    5 NUniq=    5 SFac= 1.00D+00 NAtFMM=   60 NAOKFM=F Big=F
 Integral buffers will be    131072 words long.
 Raffenetti 2 integral format.
 Two-electron integral symmetry is turned on.
 Nuclear repulsion after empirical dispersion term =      167.7313603252 Hartrees.
 One-electron integrals computed using PRISM.
 NBasis=   105 RedAO= T EigKep=  1.26D-03  NBF=   105
 NBsUse=   105 1.00D-06 EigRej= -1.00D+00 NBFU=   105
 Initial guess from the checkpoint file:  "checkpoint.chk"
 B after Tr=    -0.000000    0.000000   -0.000000
         Rot=    1.000000    0.000000   -0.000001   -0.000006 Ang=   0.00 deg.
 Keep R1 ints in memory in canonical form, NReq=35327257.
 Requested convergence on RMS density matrix=1.00D-08 within 128 cycles.
 Requested convergence on MAX density matrix=1.00D-06.
 Requested convergence on             energy=1.00D-06.
 No special actions if energy rises.
 SCF Done:  E(RwB97XD) =  -698.486221335     A.U. after    5 cycles
            NFock=  5  Conv=0.69D-08     -V/T= 2.0015
 DoSCS=F DFT=T ScalE2(SS,OS)=  1.000000  1.000000
 Range of M.O.s used for correlation:     1   105
 NBasis=   105 NAE=    21 NBE=    21 NFC=     0 NFV=     0
 NROrb=    105 NOA=    21 NOB=    21 NVA=    84 NVB=    84
 Symmetrizing basis deriv contribution to polar:
 IMax=3 JMax=2 DiffMx= 0.00D+00
 G2DrvN: will do     6 centers at a time, making    1 passes.
 Calling FoFCou, ICntrl=  3107 FMM=F I1Cent=   0 AccDes= 0.00D+00.
 End of G2Drv F.D. properties file   721 does not exist.
 End of G2Drv F.D. properties file   722 does not exist.
 End of G2Drv F.D. properties file   788 does not exist.
          IDoAtm=11111
          Differentiating once with respect to electric field.
                with respect to dipole field.
          Differentiating once with respect to nuclear coordinates.
 Keep R1 ints in memory in canonical form, NReq=35318136.
          There are    18 degrees of freedom in the 1st order CPHF.  IDoFFX=6 NUNeed=     3.
     15 vectors produced by pass  0 Test12= 9.80D-15 5.56D-09 XBig12= 1.42D+01 1.68D+00.
 AX will form    15 AO Fock derivatives at one time.
     15 vectors produced by pass  1 Test12= 9.80D-15 5.56D-09 XBig12= 1.83D+00 3.31D-01.
     15 vectors produced by pass  2 Test12= 9.80D-15 5.56D-09 XBig12= 1.18D-01 7.20D-02.
     15 vectors produced by pass  3 Test12= 9.80D-15 5.56D-09 XBig12= 1.50D-03 9.10D-03.
     15 vectors produced by pass  4 Test12= 9.80D-15 5.56D-09 XBig12= 2.34D-05 8.81D-04.
     15 vectors produced by pass  5 Test12= 9.80D-15 5.56D-09 XBig12= 1.83D-07 1.25D-04.
     15 vectors produced by pass  6 Test12= 9.80D-15 5.56D-09 XBig12= 1.15D-09 7.06D-06.
      6 vectors produced by pass  7 Test12= 9.80D-15 5.56D-09 XBig12= 8.45D-12 6.31D-07.
      3 vectors produced by pass  8 Test12= 9.80D-15 5.56D-09 XBig12= 5.45D-14 4.84D-08.
 InvSVY:  IOpt=1 It=  1 EMax= 9.99D-16
 Solved reduced A of dimension   114 with    15 vectors.
 Isotropic polarizability for W=    0.000000       31.24 Bohr**3.
 End of Minotr F.D. properties file   721 does not exist.
 End of Minotr F.D. properties file   722 does not exist.
 End of Minotr F.D. properties file   788 does not exist.
 Calling FoFJK, ICntrl=    100127 FMM=F ISym2X=0 I1Cent= 0 IOpClX= 0 NMat=1 NMatS=1 NMatT=0.
 ***** Axes restored to original set *****
 -------------------------------------------------------------------
 Center     Atomic                   Forces (Hartrees/Bohr)
 Number     Number              X              Y              Z
 -------------------------------------------------------------------
      1        6           0.000002628   -0.000003373   -0.000000001
      2        9          -0.000002646    0.000000000   -0.000000022
      3       17          -0.000000005    0.000003379    0.000000020
      4        9           0.000000008   -0.000000012    0.000000005
      5        1           0.000000014    0.000000006   -0.000000001
 -------------------------------------------------------------------
 Cartesian Forces:  Max     0.000003379 RMS     0.000001564
 -----------------------------------------------------------------------------------------------
                       Internal Coordinate Forces (Hartree/Bohr or radian)
  Cent   Atom   N1       Length/X         N2         Alpha/Y        N3         Beta/Z          J
 -----------------------------------------------------------------------------------------------
      1  C 
      2  F        1  -0.000000(     1)
      3  Cl       1  -0.000000(     2)      2  -0.000000(     5)
      4  F        1  -0.000000(     3)      2   0.000000(     6)      3   0.000000(     8)     0
      5  H        1  -0.000000(     4)      2   0.000000(     7)      3  -0.000000(     9)     0
 -----------------------------------------------------------------------------------------------
 Internal  Forces:  Max     0.000000057 RMS     0.000000023

 GradGradGradGradGradGradGradGradGradGradGradGradGradGradGradGradGradGrad
 Berny optimization.
 Search for a local minimum.
 Step number   4 out of a maximum of   20
 All quantities printed in internal units (Hartrees-Bohrs-Radians)
 Second derivative matrix not updated -- analytic derivatives used.
 DE= -1.46D-09 DEPred=-1.22D-09 R= 1.19D+00
 Trust test= 1.19D+00 RLast= 1.13D-04 DXMaxT set to 3.00D-01
 The second derivative matrix:
                          r2        r3        a3        r4        a4
           r2           0.40470
           r3           0.04234   0.22212
           a3           0.06277   0.00351   0.38630
           r4           0.05420   0.04234  -0.03201   0.40471
           a4           0.07086  -0.02804   0.09878   0.00476   0.46045
           d4           0.00425  -0.04874   0.06871   0.00766   0.02163
           r5           0.01152   0.00450  -0.00094   0.01152  -0.00312
           a5           0.07002  -0.02663   0.06329  -0.03227   0.07251
           d5          -0.00212   0.04269  -0.04053  -0.05840   0.05442
                          d4        r5        a5        d5
           d4           0.34849
           r5           0.00772   0.35416
           a5          -0.04858   0.00393   0.27084
           d5          -0.13179  -0.00631   0.00908   0.22935
 ITU=  0  0  1  0
     Eigenvalues ---    0.11338   0.15420   0.25139   0.27557   0.34812
     Eigenvalues ---    0.35815   0.46398   0.49180   0.62451
 RFO step:  Lambda= 0.00000000D+00 EMin= 1.13382997D-01
 Quintic linear search produced a step of -0.00070.
 Variable       Old X    -DE/DX   Delta X   Delta X   Delta X     New X
                                 (Linear)    (Quad)   (Total)
    r2        2.53068  -0.00000   0.00000  -0.00000  -0.00000   2.53068
    r3        3.35147  -0.00000   0.00000  -0.00000   0.00000   3.35147
    a3        1.91058  -0.00000  -0.00000  -0.00000  -0.00000   1.91058
    r4        2.53068  -0.00000   0.00000  -0.00000  -0.00000   2.53068
    a4        1.88963   0.00000   0.00000   0.00000   0.00000   1.88963
    d4        4.20148   0.00000   0.00000  -0.00000   0.00000   4.20148
    r5        2.06405  -0.00000  -0.00000  -0.00000  -0.00000   2.06405
    a5        1.92124   0.00000   0.00000   0.00000   0.00000   1.92124
    d5        2.10061  -0.00000  -0.00000  -0.00000  -0.00000   2.10061
         Item               Value     Threshold  Converged?
 Maximum Force            0.000000     0.000002     YES
 RMS     Force            0.000000     0.000001     YES
 Maximum Displacement     0.000000     0.000006     YES
 RMS     Displacement     0.000000     0.000004     YES
 Predicted change in Energy=-8.151280D-15
 Optimization completed.
    -- Stationary point found.
                       ----------------------------
                       !   Optimized Parameters   !
                       ! (Angstroms and Degrees)  !
 ----------------------                            ----------------------
 !      Name          Value   Derivative information (Atomic Units)     !
 ------------------------------------------------------------------------
 !       r2          1.3392   -DE/DX =    0.0                           !
 !       r3          1.7735   -DE/DX =    0.0                           !
 !       a3        109.4682   -DE/DX =    0.0                           !
 !       r4          1.3392   -DE/DX =    0.0                           !
 !       a4        108.2681   -DE/DX =    0.0                           !
 !       d4        240.7269   -DE/DX =    0.0                           !
 !       r5          1.0922   -DE/DX =    0.0                           !
 !       a5        110.0791   -DE/DX =    0.0                           !
 !       d5        120.356    -DE/DX =    0.0                           !
 ------------------------------------------------------------------------
 GradGradGradGradGradGradGradGradGradGradGradGradGradGradGradGradGradGrad

 ---------------------------------------------------------------------------------------------------
                            Z-MATRIX (ANGSTROMS AND DEGREES)
   CD    Cent   Atom    N1       Length/X        N2       Alpha/Y        N3        Beta/Z          J
 ---------------------------------------------------------------------------------------------------
      1      1  C 
      2      2  F        1   1.339179(     1)
      3      3  Cl       1   1.773523(     2)      2  109.468(     5)
      4      4  F        1   1.339177(     3)      2  108.268(     6)      3  240.727(     8)      0
      5      5  H        1   1.092246(     4)      2  110.079(     7)      3  120.356(     9)      0
 ---------------------------------------------------------------------------------------------------
                         Z-Matrix orientation:                         
 ---------------------------------------------------------------------
 Center     Atomic      Atomic             Coordinates (Angstroms)
 Number     Number       Type             X           Y           Z
 ---------------------------------------------------------------------
      1          6           0        0.000000    0.000000    0.000000
      2          9           0        0.000000    0.000000    1.339179
      3         17           0        1.672125    0.000000   -0.591087
      4          9           0       -0.621818    1.109288   -0.419783
      5          1           0       -0.518440   -0.885216   -0.374987
 ---------------------------------------------------------------------
                    Distance matrix (angstroms):
                    1          2          3          4          5
     1  C    0.000000
     2  F    1.339179   0.000000
     3  Cl   1.773523   2.553807   0.000000
     4  F    1.339177   2.170513   2.553828   0.000000
     5  H    1.092246   1.997687   2.372527   1.997683   0.000000
 Stoichiometry    CHClF2
 Framework group  C1[X(CHClF2)]
 Deg. of freedom     9
 Full point group                 C1      NOp   1
 Largest Abelian subgroup         C1      NOp   1
 Largest concise Abelian subgroup C1      NOp   1
                         Standard orientation:                         
 ---------------------------------------------------------------------
 Center     Atomic      Atomic             Coordinates (Angstroms)
 Number     Number       Type             X           Y           Z
 ---------------------------------------------------------------------
      1          6           0       -0.444091   -0.000003    0.366778
      2          9           0       -1.029670    1.085267   -0.155416
      3         17           0        1.279674   -0.000010   -0.050381
      4          9           0       -1.029713   -1.085245   -0.155419
      5          1           0       -0.555464   -0.000004    1.453331
 ---------------------------------------------------------------------
 Rotational constants (GHZ):          10.2195518           4.8159302           3.4855957

 **********************************************************************

            Population analysis using the SCF Density.

 **********************************************************************

 Orbital symmetries:
       Occupied  (A) (A) (A) (A) (A) (A) (A) (A) (A) (A) (A) (A)
                 (A) (A) (A) (A) (A) (A) (A) (A) (A)
       Virtual   (A) (A) (A) (A) (A) (A) (A) (A) (A) (A) (A) (A)
                 (A) (A) (A) (A) (A) (A) (A) (A) (A) (A) (A) (A)
                 (A) (A) (A) (A) (A) (A) (A) (A) (A) (A) (A) (A)
                 (A) (A) (A) (A) (A) (A) (A) (A) (A) (A) (A) (A)
                 (A) (A) (A) (A) (A) (A) (A) (A) (A) (A) (A) (A)
                 (A) (A) (A) (A) (A) (A) (A) (A) (A) (A) (A) (A)
                 (A) (A) (A) (A) (A) (A) (A) (A) (A) (A) (A) (A)
 The electronic state is 1-A.
 Alpha  occ. eigenvalues -- -101.70295 -24.85734 -24.85732 -10.53279  -9.60396
 Alpha  occ. eigenvalues --   -7.35102  -7.34062  -7.34052  -1.41738  -1.35383
 Alpha  occ. eigenvalues --   -0.98713  -0.81166  -0.69586  -0.68901  -0.65016
 Alpha  occ. eigenvalues --   -0.55996  -0.54645  -0.53481  -0.47577  -0.42886
 Alpha  occ. eigenvalues --   -0.42730
 Alpha virt. eigenvalues --    0.03322   0.05925   0.07564   0.07614   0.08673
 Alpha virt. eigenvalues --    0.12257   0.13170   0.13445   0.14700   0.16904
 Alpha virt. eigenvalues --    0.17183   0.18506   0.20493   0.22890   0.24191
 Alpha virt. eigenvalues --    0.24933   0.26459   0.27620   0.27746   0.28938
 Alpha virt. eigenvalues --    0.31453   0.31621   0.32624   0.34420   0.39758
 Alpha virt. eigenvalues --    0.39924   0.41509   0.43530   0.44888   0.45158
 Alpha virt. eigenvalues --    0.49289   0.49433   0.51349   0.53475   0.65806
 Alpha virt. eigenvalues --    0.66922   0.68797   0.73229   0.76712   0.78827
 Alpha virt. eigenvalues --    0.81414   0.82959   0.83495   0.84486   0.84910
 Alpha virt. eigenvalues --    0.92642   0.94761   0.94932   0.98331   0.99140
 Alpha virt. eigenvalues --    1.00145   1.03348   1.03725   1.10922   1.14464
 Alpha virt. eigenvalues --    1.18940   1.38336   1.46286   1.46802   1.62460
 Alpha virt. eigenvalues --    1.65584   1.80050   1.87453   1.89062   1.97426
 Alpha virt. eigenvalues --    2.05613   2.10961   2.15050   2.22614   2.35362
 Alpha virt. eigenvalues --    2.46908   2.70375   2.78576   2.82037   2.83951
 Alpha virt. eigenvalues --    2.86386   2.87009   2.91417   3.00801   3.14917
 Alpha virt. eigenvalues --    3.24437   3.29224   3.56503   3.62927
          Condensed to atoms (all electrons):
               1          2          3          4          5
     1  C    4.274071  -0.126742   0.298032  -0.126744   0.373579
     2  F   -0.126742   9.992053  -0.105232  -0.075732  -0.110202
     3  Cl   0.298032  -0.105232  17.502229  -0.105228  -0.120429
     4  F   -0.126744  -0.075732  -0.105228   9.992053  -0.110206
     5  H    0.373579  -0.110202  -0.120429  -0.110206   0.657400
 Mulliken charges:
               1
     1  C    1.307804
     2  F   -0.574147
     3  Cl  -0.469373
     4  F   -0.574143
     5  H    0.309858
 Sum of Mulliken charges =  -0.00000
 Mulliken charges with hydrogens summed into heavy atoms:
               1
     1  C    1.617663
     2  F   -0.574147
     3  Cl  -0.469373
     4  F   -0.574143
 APT charges:
               1
     1  C    1.422117
     2  F   -0.538792
     3  Cl  -0.323840
     4  F   -0.538792
     5  H   -0.020693
 Sum of APT charges =  -0.00000
 APT charges with hydrogens summed into heavy atoms:
               1
     1  C    1.401424
     2  F   -0.538792
     3  Cl  -0.323840
     4  F   -0.538792
 Electronic spatial extent (au):  <R**2>=            324.7477
 Charge=             -0.0000 electrons
 Dipole moment (field-independent basis, Debye):
    X=             -0.0826    Y=             -0.0000    Z=              1.4624  Tot=              1.4647
 Quadrupole moment (field-independent basis, Debye-Ang):
   XX=            -28.9328   YY=            -30.3678   ZZ=            -26.8020
   XY=              0.0000   XZ=             -1.4585   YZ=             -0.0000
 Traceless Quadrupole moment (field-independent basis, Debye-Ang):
   XX=             -0.2319   YY=             -1.6669   ZZ=              1.8989
   XY=              0.0000   XZ=             -1.4585   YZ=             -0.0000
 Octapole moment (field-independent basis, Debye-Ang**2):
  XXX=             -5.2424  YYY=              0.0001  ZZZ=              0.7335  XYY=             -2.4487
  XXY=              0.0001  XXZ=             -1.4096  XZZ=             -4.9382  YZZ=              0.0000
  YYZ=             -0.6693  XYZ=              0.0000
 Hexadecapole moment (field-independent basis, Debye-Ang**3):
 XXXX=           -207.6873 YYYY=            -97.3264 ZZZZ=            -36.9845 XXXY=              0.0001
 XXXZ=             -2.0396 YYYX=              0.0002 YYYZ=             -0.0000 ZZZX=             -0.2994
 ZZZY=              0.0000 XXYY=            -54.5446 XXZZ=            -43.2416 YYZZ=            -22.7911
 XXYZ=              0.0000 YYXZ=              0.8995 ZZXY=              0.0001
 N-N= 1.677313603252D+02 E-N=-1.996459373966D+03  KE= 6.974388626181D+02
  Exact polarizability:      36.906      -0.000      29.012      -1.090      -0.000      27.807
 Approx polarizability:      38.995       0.000      31.757      -1.117      -0.000      30.119
 Rotating derivatives to standard orientation.
 Full mass-weighted force constant matrix:
 Low frequencies ---   -6.4716   -0.0022    0.0034    0.0043    5.8823    7.7203
 Low frequencies ---  367.4765  413.7178  597.8847
 Diagonal vibrational polarizability:
       11.0014333       5.1324788       1.6281222
 Harmonic frequencies (cm**-1), IR intensities (KM/Mole), Raman scattering
 activities (A**4/AMU), depolarization ratios for plane and unpolarized
 incident light, reduced masses (AMU), force constants (mDyne/A),
 and normal coordinates:
                      1                      2                      3
                      A                      A                      A
 Frequencies --    367.4765               413.7178               597.8847
 Red. masses --     15.9908                19.4707                14.3161
 Frc consts  --      1.2723                 1.9635                 3.0152
 IR Inten    --      0.3997                 0.1253                 6.0032
  Atom  AN      X      Y      Z        X      Y      Z        X      Y      Z
     1   6     0.00   0.36   0.00     0.02   0.00  -0.14    -0.22   0.00  -0.40
     2   9    -0.52   0.15   0.05    -0.47  -0.23   0.01    -0.06   0.52   0.12
     3  17    -0.00  -0.30  -0.00     0.49  -0.00   0.05     0.15  -0.00   0.02
     4   9     0.52   0.15  -0.05    -0.47   0.23   0.01    -0.06  -0.52   0.12
     5   1    -0.00   0.44   0.00     0.42   0.00  -0.11    -0.17   0.00  -0.41
                      4                      5                      6
                      A                      A                      A
 Frequencies --    812.6451              1130.3573              1151.9823
 Red. masses --      5.3416                10.4261                 7.0586
 Frc consts  --      2.0784                 7.8488                 5.5190
 IR Inten    --    153.0253               233.8710               238.5752
  Atom  AN      X      Y      Z        X      Y      Z        X      Y      Z
     1   6     0.44  -0.00  -0.35     0.48  -0.00   0.53     0.00   0.58   0.00
     2   9    -0.04  -0.02   0.05    -0.16   0.23  -0.17     0.10  -0.20   0.12
     3  17    -0.12   0.00   0.08     0.00   0.00  -0.01    -0.00  -0.00  -0.00
     4   9    -0.04   0.02   0.05    -0.16  -0.23  -0.17    -0.10  -0.20  -0.12
     5   1     0.74  -0.00  -0.34     0.12  -0.00   0.51     0.00   0.73   0.00
                      7                      8                      9
                      A                      A                      A
 Frequencies --   1319.9479              1368.9426              3170.7756
 Red. masses --      1.1562                 1.1648                 1.0897
 Frc consts  --      1.1868                 1.2861                 6.4551
 IR Inten    --     63.2299                14.9595                 7.3252
  Atom  AN      X      Y      Z        X      Y      Z        X      Y      Z
     1   6    -0.10   0.00   0.03    -0.00  -0.11   0.00     0.01   0.00  -0.09
     2   9     0.01   0.01  -0.02    -0.00   0.01   0.02     0.00   0.00   0.00
     3  17    -0.00  -0.00   0.01    -0.00   0.00   0.00    -0.00   0.00   0.00
     4   9     0.01  -0.01  -0.02     0.00   0.01  -0.02     0.00  -0.00   0.00
     5   1     0.98  -0.00   0.14     0.00   0.99   0.00    -0.09  -0.00   0.99

 -------------------
 - Thermochemistry -
 -------------------
 Temperature   298.150 Kelvin.  Pressure   1.00000 Atm.
 Atom     1 has atomic number  6 and mass  12.00000
 Atom     2 has atomic number  9 and mass  18.99840
 Atom     3 has atomic number 17 and mass  34.96885
 Atom     4 has atomic number  9 and mass  18.99840
 Atom     5 has atomic number  1 and mass   1.00783
 Molecular mass:    85.97348 amu.
 Principal axes and moments of inertia in atomic units:
                           1         2         3
     Eigenvalues --   176.59690 374.74406 517.77124
           X            0.99994  -0.00000  -0.01102
           Y            0.00000   1.00000  -0.00000
           Z            0.01102   0.00000   0.99994
 This molecule is an asymmetric top.
 Rotational symmetry number  1.
 Rotational temperatures (Kelvin)      0.49046     0.23113     0.16728
 Rotational constants (GHZ):          10.21955     4.81593     3.48560
 Zero-point vibrational energy      61809.4 (Joules/Mol)
                                   14.77281 (Kcal/Mol)
 Warning -- explicit consideration of   3 degrees of freedom as
           vibrations may cause significant error
 Vibrational temperatures:    528.72   595.25   860.22  1169.22  1626.33
          (Kelvin)           1657.45  1899.11  1969.60  4562.04
 
 Zero-point correction=                           0.023542 (Hartree/Particle)
 Thermal correction to Energy=                    0.027310
 Thermal correction to Enthalpy=                  0.028254
 Thermal correction to Gibbs Free Energy=        -0.003634
 Sum of electronic and zero-point Energies=           -698.462679
 Sum of electronic and thermal Energies=              -698.458911
 Sum of electronic and thermal Enthalpies=            -698.457967
 Sum of electronic and thermal Free Energies=         -698.489855
 
                     E (Thermal)             CV                S
                      KCal/Mol        Cal/Mol-Kelvin    Cal/Mol-Kelvin
 Total                   17.137             11.357             67.115
 Electronic               0.000              0.000              0.000
 Translational            0.889              2.981             39.268
 Rotational               0.889              2.981             25.042
 Vibrational             15.360              5.396              2.805
 Vibration     1          0.740              1.539              1.090
 Vibration     2          0.777              1.440              0.914
 Vibration     3          0.956              1.036              0.453
                       Q            Log10(Q)             Ln(Q)
 Total Bot       0.469286D+02          1.671438          3.848628
 Total V=0       0.316215D+13         12.499982         28.782273
 Vib (Bot)       0.226029D-10        -10.645836        -24.512944
 Vib (Bot)    1  0.496281D+00         -0.304272         -0.700613
 Vib (Bot)    2  0.426447D+00         -0.370135         -0.852268
 Vib (Bot)    3  0.250289D+00         -0.601557         -1.385137
 Vib (V=0)       0.152303D+01          0.182708          0.420701
 Vib (V=0)    1  0.120448D+01          0.080800          0.186050
 Vib (V=0)    2  0.115716D+01          0.063393          0.145967
 Vib (V=0)    3  0.105915D+01          0.024956          0.057463
 Electronic      0.100000D+01          0.000000          0.000000
 Translational   0.313329D+08          7.496001         17.260179
 Rotational      0.662634D+05          4.821273         11.101392
 ***** Axes restored to original set *****
 -------------------------------------------------------------------
 Center     Atomic                   Forces (Hartrees/Bohr)
 Number     Number              X              Y              Z
 -------------------------------------------------------------------
      1        6           0.000002628   -0.000003373   -0.000000001
      2        9          -0.000002646    0.000000000   -0.000000022
      3       17          -0.000000005    0.000003379    0.000000020
      4        9           0.000000008   -0.000000012    0.000000005
      5        1           0.000000014    0.000000006   -0.000000001
 -------------------------------------------------------------------
 Cartesian Forces:  Max     0.000003379 RMS     0.000001564
 -----------------------------------------------------------------------------------------------
                       Internal Coordinate Forces (Hartree/Bohr or radian)
  Cent   Atom   N1       Length/X         N2         Alpha/Y        N3         Beta/Z          J
 -----------------------------------------------------------------------------------------------
      1  C 
      2  F        1  -0.000000(     1)
      3  Cl       1  -0.000000(     2)      2  -0.000000(     5)
      4  F        1  -0.000000(     3)      2   0.000000(     6)      3   0.000000(     8)     0
      5  H        1  -0.000000(     4)      2   0.000000(     7)      3  -0.000000(     9)     0
 -----------------------------------------------------------------------------------------------
 Internal  Forces:  Max     0.000000057 RMS     0.000000023

 ----------------------------------------------------------------------

 Electric dipole moment (input orientation):
 (Debye = 10**-18 statcoulomb cm , SI units = C m)
                  (au)            (Debye)         (10**-30 SI)
   Tot        0.576264D+00      0.146472D+01      0.488577D+01
   x         -0.251310D+00     -0.638766D+00     -0.213069D+01
   y         -0.474088D+00     -0.120501D+01     -0.401949D+01
   z         -0.210153D+00     -0.534156D+00     -0.178175D+01

 Dipole polarizability, Alpha (input orientation).
 (esu units = cm**3 , SI units = C**2 m**2 J**-1)
 Alpha(0;0):
               (au)            (10**-24 esu)      (10**-40 SI)
   iso        0.312417D+02      0.462954D+01      0.515106D+01
   aniso      0.876651D+01      0.129906D+01      0.144540D+01
   xx         0.356335D+02      0.528034D+01      0.587518D+01
   yx        -0.107569D+01     -0.159401D+00     -0.177358D+00
   yy         0.281252D+02      0.416772D+01      0.463721D+01
   zx        -0.301899D+01     -0.447368D+00     -0.497765D+00
   zy        -0.179041D+00     -0.265312D-01     -0.295199D-01
   zz         0.299663D+02      0.444055D+01      0.494078D+01

 ----------------------------------------------------------------------

 Dipole orientation:
     6         -0.00000000         -0.00000000          0.00000000
     9         -1.10363431          2.08197232         -0.92289413
    17          3.20661659         -0.08820930         -0.97067153
     9         -1.21646540         -2.01815007         -0.92282789
     1         -0.09435907          0.00262688          2.06188702

 Electric dipole moment (dipole orientation):
 (Debye = 10**-18 statcoulomb cm , SI units = C m)
                  (au)            (Debye)         (10**-30 SI)
   Tot        0.576264D+00      0.146472D+01      0.488577D+01
   x          0.000000D+00      0.000000D+00      0.000000D+00
   y          0.000000D+00      0.000000D+00      0.000000D+00
   z          0.576264D+00      0.146472D+01      0.488577D+01

 Dipole polarizability, Alpha (dipole orientation).
 (esu units = cm**3 , SI units = C**2 m**2 J**-1)
 Alpha(0;0):
               (au)            (10**-24 esu)      (10**-40 SI)
   iso        0.312417D+02      0.462954D+01      0.515106D+01
   aniso      0.876651D+01      0.129906D+01      0.144540D+01
   xx         0.367487D+02      0.544559D+01      0.605904D+01
   yx        -0.212782D+00     -0.315310D-01     -0.350830D-01
   yy         0.290179D+02      0.430001D+01      0.478441D+01
   zx        -0.159499D+01     -0.236353D+00     -0.262979D+00
   zy         0.438313D-01      0.649513D-02      0.722681D-02
   zz         0.279584D+02      0.414301D+01      0.460972D+01

 ----------------------------------------------------------------------
 Unable to Open any file for archive entry.
 1\1\GINC-GADI-CPU-CLX-1816\Freq\RwB97XD\Gen\C1H1Cl1F2\PK8622\30-Jul-20
 20\1\\# wB97xD/Gen Freq Opt=(VeryTight,ZMatrix,CalcAll) Int=UltraFine\
 \CFC-22 - HClF2 HARMONIC FREQUENCIES\\0,1\C\F,1,r2\Cl,1,r3,2,a3\F,1,r4
 ,2,a4,3,d4,0\H,1,r5,2,a5,3,d5,0\\r2=1.3391792\r3=1.77352335\a3=109.468
 23484\r4=1.33917691\a4=108.26808485\d4=240.72693876\r5=1.09224645\a5=1
 10.07907852\d5=120.35604251\\Version=ES64L-G16RevC.01\State=1-A\HF=-69
 8.4862213\RMSD=6.858e-09\RMSF=1.564e-06\ZeroPoint=0.023542\Thermal=0.0
 273103\ETot=-698.4589111\HTot=-698.4579669\GTot=-698.4898552\Dipole=-0
 .2513098,-0.4740882,-0.2101533\DipoleDeriv=1.7044766,-0.3223057,-0.271
 3165,-0.4556602,1.0401136,-0.136465,-0.3554206,-0.1836042,1.5217615,-0
 .3437319,0.0141581,0.0927685,0.0146335,-0.2390335,-0.029942,0.2464524,
 0.0859459,-1.0336101,-0.6661089,0.0578087,0.2333857,-0.0388223,-0.1186
 992,0.0076202,0.1724411,-0.0265381,-0.1867128,-0.6157116,0.2912902,-0.
 0686909,0.4725498,-0.6847418,0.1808942,-0.1077571,0.1292471,-0.3159232
 ,-0.0789242,-0.0409512,0.0138532,0.0072993,0.0023609,-0.0221075,0.0442
 842,-0.0050508,0.0144845\Polar=35.6335291,-1.0756934,28.1251613,-3.018
 9918,-0.1790412,29.9663257\PG=C01 [X(C1H1Cl1F2)]\NImag=0\\0.41575742,0
 .07073476,0.61239114,0.06229047,0.06745957,0.48628970,-0.06899508,-0.0
 0614743,0.00286579,0.06614215,-0.00524289,-0.07913931,-0.02571418,-0.0
 0678395,0.06609945,-0.01940230,-0.03886908,-0.29353705,0.00369829,-0.0
 0008165,0.40470175,-0.12379516,-0.03034433,0.01323349,-0.01103913,0.00
 046724,0.03367430,0.20060593,-0.01887499,-0.04340113,-0.00037608,0.002
 58013,0.00796588,0.00068893,-0.00252512,0.03155447,0.02046670,0.003678
 05,-0.03713911,0.03811066,0.00207929,-0.03176970,-0.05980221,-0.001874
 24,0.05590152,-0.10586538,0.08904729,-0.02631041,0.00507270,0.01062515
[...]
 Dipole moment (field-independent basis, Debye):
    X=             -0.0826    Y=             -0.0000    Z=              1.4624  Tot=              1.4647
 Quadrupole moment (field-independent basis, Debye-Ang):
   XX=            -28.9328   YY=            -30.3678   ZZ=            -26.8020
   XY=              0.0000   XZ=             -1.4585   YZ=             -0.0000
 Traceless Quadrupole moment (field-independent basis, Debye-Ang):
   XX=             -0.2319   YY=             -1.6669   ZZ=              1.8989
   XY=              0.0000   XZ=             -1.4585   YZ=             -0.0000
 Octapole moment (field-independent basis, Debye-Ang**2):
  XXX=             -5.2423  YYY=              0.0001  ZZZ=              0.7335  XYY=             -2.4487
  XXY=              0.0001  XXZ=             -1.4096  XZZ=             -4.9382  YZZ=              0.0000
  YYZ=             -0.6693  XYZ=              0.0000
 Hexadecapole moment (field-independent basis, Debye-Ang**3):
 XXXX=           -207.6872 YYYY=            -97.3264 ZZZZ=            -36.9845 XXXY=              0.0001
 XXXZ=             -2.0396 YYYX=              0.0002 YYYZ=             -0.0000 ZZZX=             -0.2994
 ZZZY=              0.0000 XXYY=            -54.5446 XXZZ=            -43.2416 YYZZ=            -22.7911
 XXYZ=              0.0000 YYXZ=              0.8995 ZZXY=              0.0001
 N-N= 1.677313603252D+02 E-N=-1.996459374119D+03  KE= 6.974388627501D+02
  Exact polarizability:      36.906      -0.000      29.012      -1.090      -0.000      27.807
 Approx polarizability:      38.995       0.000      31.757      -1.117      -0.000      30.119
 Calling FoFJK, ICntrl=    100127 FMM=F ISym2X=0 I1Cent= 0 IOpClX= 0 NMat=1 NMatS=1 NMatT=0.
 Full mass-weighted force constant matrix:
 Low frequencies ---   -6.4716   -0.0067   -0.0065   -0.0063    5.8823    7.7211
 Low frequencies ---  367.4765  413.7177  597.8846
 Diagonal vibrational polarizability:
       11.0014277       5.1324760       1.6281221
 Harmonic frequencies (cm**-1), IR intensities (KM/Mole), Raman scattering
 activities (A**4/AMU), depolarization ratios for plane and unpolarized
 incident light, reduced masses (AMU), force constants (mDyne/A),
 and normal coordinates:
                      1                      2                      3
                      A                      A                      A
 Frequencies --    367.4765               413.7177               597.8846
 Red. masses --     15.9908                19.4707                14.3161
 Frc consts  --      1.2723                 1.9635                 3.0152
 IR Inten    --      0.3997                 0.1253                 6.0032
  Atom  AN      X      Y      Z        X      Y      Z        X      Y      Z
     1   6     0.00   0.36   0.00     0.02   0.00  -0.14    -0.22   0.00  -0.40
     2   9    -0.52   0.15   0.05    -0.47  -0.23   0.01    -0.06   0.52   0.12
     3  17    -0.00  -0.30  -0.00     0.49  -0.00   0.05     0.15  -0.00   0.02
     4   9     0.52   0.15  -0.05    -0.47   0.23   0.01    -0.06  -0.52   0.12
     5   1    -0.00   0.44   0.00     0.42   0.00  -0.11    -0.17   0.00  -0.41
                      4                      5                      6
                      A                      A                      A
 Frequencies --    812.6451              1130.3574              1151.9825
 Red. masses --      5.3416                10.4261                 7.0586
 Frc consts  --      2.0784                 7.8488                 5.5190
 IR Inten    --    153.0252               233.8710               238.5751
  Atom  AN      X      Y      Z        X      Y      Z        X      Y      Z
     1   6     0.44  -0.00  -0.35     0.48  -0.00   0.53     0.00   0.58   0.00
     2   9    -0.04  -0.02   0.05    -0.16   0.23  -0.17     0.10  -0.20   0.12
     3  17    -0.12   0.00   0.08     0.00   0.00  -0.01    -0.00  -0.00  -0.00
     4   9    -0.04   0.02   0.05    -0.16  -0.23  -0.17    -0.10  -0.20  -0.12
     5   1     0.74  -0.00  -0.34     0.12  -0.00   0.51     0.00   0.73   0.00
                      7                      8                      9
                      A                      A                      A
 Frequencies --   1319.9478              1368.9425              3170.7756
 Red. masses --      1.1562                 1.1648                 1.0897
 Frc consts  --      1.1868                 1.2861                 6.4551
 IR Inten    --     63.2299                14.9595                 7.3252
  Atom  AN      X      Y      Z        X      Y      Z        X      Y      Z
     1   6    -0.10   0.00   0.03    -0.00  -0.11   0.00     0.01   0.00  -0.09
     2   9     0.01   0.01  -0.02    -0.00   0.01   0.02     0.00   0.00   0.00
     3  17    -0.00  -0.00   0.01    -0.00   0.00   0.00    -0.00   0.00   0.00
     4   9     0.01  -0.01  -0.02     0.00   0.01  -0.02     0.00  -0.00   0.00
     5   1     0.98  -0.00   0.14     0.00   0.99   0.00    -0.09  -0.00   0.99

 -------------------
 - Thermochemistry -
 -------------------
 Temperature   298.150 Kelvin.  Pressure   1.00000 Atm.
 Atom     1 has atomic number  6 and mass  12.00000
 Atom     2 has atomic number  9 and mass  18.99840
 Atom     3 has atomic number 17 and mass  34.96885
 Atom     4 has atomic number  9 and mass  18.99840
 Atom     5 has atomic number  1 and mass   1.00783
 Molecular mass:    85.97348 amu.
 Principal axes and moments of inertia in atomic units:
                           1         2         3
     Eigenvalues --   176.59690 374.74406 517.77124
           X            0.99994  -0.00000  -0.01102
           Y            0.00000   1.00000  -0.00000
           Z            0.01102   0.00000   0.99994
 This molecule is an asymmetric top.
 Rotational symmetry number  1.
 Rotational temperatures (Kelvin)      0.49046     0.23113     0.16728
 Rotational constants (GHZ):          10.21955     4.81593     3.48560
 Zero-point vibrational energy      61809.4 (Joules/Mol)
                                   14.77281 (Kcal/Mol)
 Warning -- explicit consideration of   3 degrees of freedom as
           vibrations may cause significant error
 Vibrational temperatures:    528.72   595.25   860.22  1169.22  1626.33
          (Kelvin)           1657.45  1899.11  1969.60  4562.04
 
 Zero-point correction=                           0.023542 (Hartree/Particle)
 Thermal correction to Energy=                    0.027310
 Thermal correction to Enthalpy=                  0.028254
 Thermal correction to Gibbs Free Energy=        -0.003634
 Sum of electronic and zero-point Energies=           -698.462679
 Sum of electronic and thermal Energies=              -698.458911
 Sum of electronic and thermal Enthalpies=            -698.457967
 Sum of electronic and thermal Free Energies=         -698.489855
 
                     E (Thermal)             CV                S
                      KCal/Mol        Cal/Mol-Kelvin    Cal/Mol-Kelvin
 Total                   17.137             11.357             67.115
 Electronic               0.000              0.000              0.000
 Translational            0.889              2.981             39.268
 Rotational               0.889              2.981             25.042
 Vibrational             15.360              5.396              2.805
 Vibration     1          0.740              1.539              1.090
 Vibration     2          0.777              1.440              0.914
 Vibration     3          0.956              1.036              0.453
                       Q            Log10(Q)             Ln(Q)
 Total Bot       0.469287D+02          1.671438          3.848629
 Total V=0       0.316215D+13         12.499982         28.782273
 Vib (Bot)       0.226029D-10        -10.645836        -24.512943
 Vib (Bot)    1  0.496281D+00         -0.304272         -0.700613
 Vib (Bot)    2  0.426447D+00         -0.370135         -0.852268
 Vib (Bot)    3  0.250290D+00         -0.601557         -1.385137
 Vib (V=0)       0.152303D+01          0.182708          0.420701
 Vib (V=0)    1  0.120448D+01          0.080800          0.186050
 Vib (V=0)    2  0.115716D+01          0.063393          0.145967
 Vib (V=0)    3  0.105915D+01          0.024956          0.057463
 Electronic      0.100000D+01          0.000000          0.000000
 Translational   0.313329D+08          7.496001         17.260179
 Rotational      0.662634D+05          4.821273         11.101392
 ***** Axes restored to original set *****
 -------------------------------------------------------------------
 Center     Atomic                   Forces (Hartrees/Bohr)
 Number     Number              X              Y              Z
 -------------------------------------------------------------------
      1        6           0.000002681   -0.000003399   -0.000000025
      2        9          -0.000002659    0.000000004    0.000000005
      3       17          -0.000000008    0.000003385    0.000000015
      4        9          -0.000000010    0.000000008    0.000000003
      5        1          -0.000000004    0.000000003    0.000000002
 -------------------------------------------------------------------
 Cartesian Forces:  Max     0.000003399 RMS     0.000001576
 -----------------------------------------------------------------------------------------------
                       Internal Coordinate Forces (Hartree/Bohr or radian)
  Cent   Atom   N1       Length/X         N2         Alpha/Y        N3         Beta/Z          J
 -----------------------------------------------------------------------------------------------
      1  C 
      2  F        1   0.000000(     1)
      3  Cl       1  -0.000000(     2)      2  -0.000000(     5)
      4  F        1   0.000000(     3)      2  -0.000000(     6)      3  -0.000000(     8)     0
      5  H        1  -0.000000(     4)      2  -0.000000(     7)      3   0.000000(     9)     0
 -----------------------------------------------------------------------------------------------
 Internal  Forces:  Max     0.000000040 RMS     0.000000016

 GradGradGradGradGradGradGradGradGradGradGradGradGradGradGradGradGradGrad
 Berny optimization.
 Search for a local minimum.
 Step number   1 out of a maximum of    2
 All quantities printed in internal units (Hartrees-Bohrs-Radians)
 Second derivative matrix not updated -- analytic derivatives used.
 The second derivative matrix:
                          r2        r3        a3        r4        a4
           r2           0.40470
           r3           0.04234   0.22212
           a3           0.06277   0.00351   0.38630
           r4           0.05420   0.04234  -0.03201   0.40471
           a4           0.07086  -0.02804   0.09878   0.00476   0.46045
           d4           0.00425  -0.04874   0.06871   0.00766   0.02163
           r5           0.01152   0.00450  -0.00094   0.01152  -0.00312
           a5           0.07002  -0.02663   0.06329  -0.03227   0.07251
           d5          -0.00212   0.04269  -0.04053  -0.05840   0.05442
                          d4        r5        a5        d5
           d4           0.34849
           r5           0.00772   0.35416
           a5          -0.04858   0.00393   0.27084
           d5          -0.13179  -0.00631   0.00908   0.22935
 ITU=  0
     Eigenvalues ---    0.11338   0.15420   0.25139   0.27557   0.34812
     Eigenvalues ---    0.35815   0.46398   0.49180   0.62451
 Angle between quadratic step and forces=  90.00 degrees.
 Linear search not attempted -- first point.
 Variable       Old X    -DE/DX   Delta X   Delta X   Delta X     New X
                                 (Linear)    (Quad)   (Total)
    r2        2.53068   0.00000   0.00000   0.00000   0.00000   2.53068
    r3        3.35147  -0.00000   0.00000  -0.00000  -0.00000   3.35147
    a3        1.91058  -0.00000   0.00000  -0.00000  -0.00000   1.91058
    r4        2.53068   0.00000   0.00000   0.00000   0.00000   2.53068
    a4        1.88963  -0.00000   0.00000  -0.00000  -0.00000   1.88963
    d4        4.20148  -0.00000   0.00000  -0.00000  -0.00000   4.20148
    r5        2.06405  -0.00000   0.00000  -0.00000  -0.00000   2.06405
    a5        1.92124  -0.00000   0.00000  -0.00000  -0.00000   1.92124
    d5        2.10061   0.00000   0.00000   0.00000   0.00000   2.10061
         Item               Value     Threshold  Converged?
 Maximum Force            0.000000     0.000002     YES
 RMS     Force            0.000000     0.000001     YES
 Maximum Displacement     0.000000     0.000006     YES
 RMS     Displacement     0.000000     0.000004     YES
 Predicted change in Energy=-3.148551D-15
 Optimization completed.
    -- Stationary point found.
                       ----------------------------
                       !   Optimized Parameters   !
                       ! (Angstroms and Degrees)  !
 ----------------------                            ----------------------
 !      Name          Value   Derivative information (Atomic Units)     !
 ------------------------------------------------------------------------
 !       r2          1.3392   -DE/DX =    0.0                           !
 !       r3          1.7735   -DE/DX =    0.0                           !
 !       a3        109.4682   -DE/DX =    0.0                           !
 !       r4          1.3392   -DE/DX =    0.0                           !
 !       a4        108.2681   -DE/DX =    0.0                           !
 !       d4        240.7269   -DE/DX =    0.0                           !
 !       r5          1.0922   -DE/DX =    0.0                           !
 !       a5        110.0791   -DE/DX =    0.0                           !
 !       d5        120.356    -DE/DX =    0.0                           !
 ------------------------------------------------------------------------
 GradGradGradGradGradGradGradGradGradGradGradGradGradGradGradGradGradGrad


 ----------------------------------------------------------------------

 Electric dipole moment (input orientation):
 (Debye = 10**-18 statcoulomb cm , SI units = C m)
                  (au)            (Debye)         (10**-30 SI)
   Tot        0.576264D+00      0.146472D+01      0.488577D+01
   x         -0.251309D+00     -0.638764D+00     -0.213069D+01
   y         -0.474088D+00     -0.120501D+01     -0.401949D+01
   z         -0.210153D+00     -0.534157D+00     -0.178176D+01

 Dipole polarizability, Alpha (input orientation).
 (esu units = cm**3 , SI units = C**2 m**2 J**-1)
 Alpha(0;0):
               (au)            (10**-24 esu)      (10**-40 SI)
   iso        0.312417D+02      0.462954D+01      0.515106D+01
   aniso      0.876651D+01      0.129906D+01      0.144540D+01
   xx         0.356335D+02      0.528034D+01      0.587518D+01
   yx        -0.107569D+01     -0.159401D+00     -0.177358D+00
   yy         0.281252D+02      0.416772D+01      0.463721D+01
   zx        -0.301899D+01     -0.447368D+00     -0.497764D+00
   zy        -0.179041D+00     -0.265312D-01     -0.295199D-01
   zz         0.299663D+02      0.444055D+01      0.494078D+01

 ----------------------------------------------------------------------

 Dipole orientation:
     6          0.00000000         -0.00000000          0.00000000
     9         -1.10363225          2.08197297         -0.92289513
    17          3.20661745         -0.08821112         -0.97066852
     9         -1.21646569         -2.01814936         -0.92282907
     1         -0.09436101          0.00262690          2.06188693

 Electric dipole moment (dipole orientation):
 (Debye = 10**-18 statcoulomb cm , SI units = C m)
                  (au)            (Debye)         (10**-30 SI)
   Tot        0.576264D+00      0.146472D+01      0.488577D+01
   x          0.000000D+00      0.000000D+00      0.000000D+00
   y          0.000000D+00      0.000000D+00      0.000000D+00
   z          0.576264D+00      0.146472D+01      0.488577D+01

 Dipole polarizability, Alpha (dipole orientation).
 (esu units = cm**3 , SI units = C**2 m**2 J**-1)
 Alpha(0;0):
               (au)            (10**-24 esu)      (10**-40 SI)
   iso        0.312417D+02      0.462954D+01      0.515106D+01
   aniso      0.876651D+01      0.129906D+01      0.144540D+01
   xx         0.367487D+02      0.544559D+01      0.605904D+01
   yx        -0.212786D+00     -0.315317D-01     -0.350837D-01
   yy         0.290179D+02      0.430001D+01      0.478441D+01
   zx        -0.159498D+01     -0.236352D+00     -0.262977D+00
   zy         0.438320D-01      0.649523D-02      0.722692D-02
   zz         0.279584D+02      0.414301D+01      0.460972D+01

 ----------------------------------------------------------------------
 Unable to Open any file for archive entry.
 1\1\GINC-GADI-CPU-CLX-1816\Freq\RwB97XD\Gen\C1H1Cl1F2\PK8622\30-Jul-20
 20\1\\#N Geom=AllCheck Guess=TCheck SCRF=Check GenChk RwB97XD/ChkBas F
 req\\CFC-22 - HClF2 HARMONIC FREQUENCIES\\0,1\C\F,1,r2\Cl,1,r3,2,a3\F,
 1,r4,2,a4,3,d4,0\H,1,r5,2,a5,3,d5,0\\r2=1.3391792\r3=1.77352335\a3=109
 .46823484\r4=1.33917691\a4=108.26808485\d4=240.72693876\r5=1.09224645\
 a5=110.07907852\d5=120.35604251\\Version=ES64L-G16RevC.01\State=1-A\HF
 =-698.4862213\RMSD=2.507e-09\RMSF=1.576e-06\ZeroPoint=0.023542\Thermal
 =0.0273103\ETot=-698.4589111\HTot=-698.4579669\GTot=-698.4898552\Dipol
 e=-0.2513093,-0.4740883,-0.2101535\DipoleDeriv=1.7044763,-0.3223057,-0
 .2713164,-0.4556602,1.0401134,-0.1364649,-0.3554206,-0.1836041,1.52176
 13,-0.3437319,0.0141581,0.0927685,0.0146335,-0.2390335,-0.029942,0.246
 4524,0.0859459,-1.03361,-0.6661085,0.0578087,0.2333856,-0.0388223,-0.1
 18699,0.0076202,0.172441,-0.0265381,-0.1867126,-0.6157116,0.2912901,-0
 .0686909,0.4725497,-0.6847418,0.1808942,-0.1077571,0.1292471,-0.315923
 2,-0.0789242,-0.0409512,0.0138532,0.0072993,0.0023609,-0.0221075,0.044
 2842,-0.0050508,0.0144845\Polar=35.6335297,-1.0756932,28.1251617,-3.01
 89917,-0.1790411,29.9663261\Quadrupole=0.7137504,0.2882656,-1.002016,1
 .3777093,0.1784562,0.4763481\PG=C01 [X(C1H1Cl1F2)]\NImag=0\\0.41575743
 ,0.07073468,0.61239115,0.06229046,0.06745953,0.48628979,-0.06899507,-0
 .00614742,0.00286580,0.06614214,-0.00524288,-0.07913930,-0.02571418,-0
 .00678395,0.06609943,-0.01940228,-0.03886908,-0.29353713,0.00369828,-0
 .00008163,0.40470180,-0.12379518,-0.03034432,0.01323350,-0.01103913,0.
 00046724,0.03367430,0.20060595,-0.01887499,-0.04340113,-0.00037607,0.0
 0258013,0.00796588,0.00068893,-0.00252511,0.03155447,0.02046671,0.0036
 7805,-0.03713911,0.03811066,0.00207929,-0.03176969,-0.05980222,-0.0018
 7424,0.05590152,-0.10586540,0.08904734,-0.02631042,0.00507270,0.010625
 14,-0.01933155,-0.04136697,0.03385975,0.00013321,0.13296019,0.06477674
 ,-0.25653522,0.03834233,0.01088821,-0.00294355,0.03810181,0.02887725,-
 0.00199421,-0.00286425,-0.13145677,0.29826815,-0.01877818,0.04323752,-
 0.07927614,-0.02733964,0.05164435,-0.04357833,0.00009488,-0.00398243,0
 .00852098,0.04536148,-0.08987386,0.10571781,-0.11710178,-0.12329028,-0
 .05207934,0.00881936,0.00093444,0.00136126,-0.02440466,-0.01503978,0.0
 0109165,0.00919947,0.02691457,0.00066145,0.12348761,-0.11139355,-0.233
 31551,-0.07971162,-0.00053697,0.00801753,0.00015998,0.00352495,0.00587
 498,-0.00101884,-0.00207547,-0.03679517,-0.00102558,0.11048105,0.25621
 816,-0.04457670,-0.07550603,-0.07633740,-0.01733510,-0.02792783,-0.035
 81664,0.01279954,0.00554382,0.00448630,0.00014728,0.01629398,0.0086156
 8,0.04896498,0.08159607,0.09905206\\-0.00000268,0.00000340,0.00000003,
 0.00000266,0.,0.,0.,-0.00000338,-0.00000002,0.00000001,0.,0.,0.,0.,0.\
 \\@
 The archive entry for this job was punched.


 THE WORLD OF CHEMICAL REACTIONS IS LIKE A STAGE,
 ON WHICH SCENE AFTER SCENE IS CEASELESSLY PLAYED.
 THE ACTORS ON IT ARE THE ELEMENTS.
   -- CLEMENS WINKLER   BER. 30,13(1897)
 (DISCOVERER OF GERMANIUM, FEB 6, 1886)
 Job cpu time:       0 days  0 hours  2 minutes  7.4 seconds.
 Elapsed time:       0 days  0 hours  2 minutes  3.3 seconds.
 File lengths (MBytes):  RWF=     12 Int=      0 D2E=      0 Chk=      2 Scr=      1
 Normal termination of Gaussian 16 at Thu Jul 30 12:31:19 2020.
