 Entering Gaussian System, Link 0=g16
 Input=CFC-14.gjf
 Output=CFC-14.log
 Initial command:
 /apps/gaussian/g16c01/g16/l1.exe "/jobfs/9249316.gadi-pbs/Gau-1589940.inp" -scrdir="/jobfs/9249316.gadi-pbs/"
 Entering Link 1 = /apps/gaussian/g16c01/g16/l1.exe PID=   1589941.
  
 Copyright (c) 1988-2019, Gaussian, Inc.  All Rights Reserved.
  
 This is part of the Gaussian(R) 16 program.  It is based on
 the Gaussian(R) 09 system (copyright 2009, Gaussian, Inc.),
 the Gaussian(R) 03 system (copyright 2003, Gaussian, Inc.),
 the Gaussian(R) 98 system (copyright 1998, Gaussian, Inc.),
 the Gaussian(R) 94 system (copyright 1995, Gaussian, Inc.),
 the Gaussian 92(TM) system (copyright 1992, Gaussian, Inc.),
 the Gaussian 90(TM) system (copyright 1990, Gaussian, Inc.),
 the Gaussian 88(TM) system (copyright 1988, Gaussian, Inc.),
 the Gaussian 86(TM) system (copyright 1986, Carnegie Mellon
 University), and the Gaussian 82(TM) system (copyright 1983,
 Carnegie Mellon University). Gaussian is a federally registered
 trademark of Gaussian, Inc.
  
 This software contains proprietary and confidential information,
 including trade secrets, belonging to Gaussian, Inc.
  
 This software is provided under written license and may be
 used, copied, transmitted, or stored only in accord with that
 written license.
  
 The following legend is applicable only to US Government
 contracts under FAR:
  
                    RESTRICTED RIGHTS LEGEND
  
 Use, reproduction and disclosure by the US Government is
 subject to restrictions as set forth in subparagraphs (a)
 and (c) of the Commercial Computer Software - Restricted
 Rights clause in FAR 52.227-19.
  
 Gaussian, Inc.
 340 Quinnipiac St., Bldg. 40, Wallingford CT 06492
  
  
 ---------------------------------------------------------------
 Warning -- This program may not be used in any manner that
 competes with the business of Gaussian, Inc. or will provide
 assistance to any competitor of Gaussian, Inc.  The licensee
 of this program is prohibited from giving any competitor of
 Gaussian, Inc. access to this program.  By using this program,
 the user acknowledges that Gaussian, Inc. is engaged in the
 business of creating and licensing software in the field of
 computational chemistry and represents and warrants to the
 licensee that it is not a competitor of Gaussian, Inc. and that
 it will not use this program in any manner prohibited above.
 ---------------------------------------------------------------
  

 Cite this work as:
 Gaussian 16, Revision C.01,
 M. J. Frisch, G. W. Trucks, H. B. Schlegel, G. E. Scuseria, 
 M. A. Robb, J. R. Cheeseman, G. Scalmani, V. Barone, 
 G. A. Petersson, H. Nakatsuji, X. Li, M. Caricato, A. V. Marenich, 
 J. Bloino, B. G. Janesko, R. Gomperts, B. Mennucci, H. P. Hratchian, 
 J. V. Ortiz, A. F. Izmaylov, J. L. Sonnenberg, D. Williams-Young, 
 F. Ding, F. Lipparini, F. Egidi, J. Goings, B. Peng, A. Petrone, 
 T. Henderson, D. Ranasinghe, V. G. Zakrzewski, J. Gao, N. Rega, 
 G. Zheng, W. Liang, M. Hada, M. Ehara, K. Toyota, R. Fukuda, 
 J. Hasegawa, M. Ishida, T. Nakajima, Y. Honda, O. Kitao, H. Nakai, 
 T. Vreven, K. Throssell, J. A. Montgomery, Jr., J. E. Peralta, 
 F. Ogliaro, M. J. Bearpark, J. J. Heyd, E. N. Brothers, K. N. Kudin, 
 V. N. Staroverov, T. A. Keith, R. Kobayashi, J. Normand, 
 K. Raghavachari, A. P. Rendell, J. C. Burant, S. S. Iyengar, 
 J. Tomasi, M. Cossi, J. M. Millam, M. Klene, C. Adamo, R. Cammi, 
 J. W. Ochterski, R. L. Martin, K. Morokuma, O. Farkas, 
 J. B. Foresman, and D. J. Fox, Gaussian, Inc., Wallingford CT, 2019.
 
 ******************************************
 Gaussian 16:  ES64L-G16RevC.01  3-Jul-2019
                 2-Aug-2020 
 ******************************************
 %NprocShared=4
 Will use up to    4 processors via shared memory.
 %chk=checkpoint.chk
 ---------------------------------------------------------------
 # wB97xD/Gen Freq Opt=(VeryTight,ZMatrix,CalcAll) Int=UltraFine
 ---------------------------------------------------------------
 1/7=1,10=4,18=40,26=4,38=1/1,3;
 2/12=2,17=6,18=5,29=3,40=1/2;
 3/5=7,11=2,25=1,30=1,71=2,74=-58,75=-5,140=1/1,2,3;
 4//1;
 5/5=2,38=5/2;
 8/6=4,10=90,11=11/1;
 11/6=1,8=1,9=11,15=111,16=1/1,2,10;
 10/6=1/2;
 6/7=2,8=2,9=2,10=2,18=1,28=1/1;
 7/10=1,25=1/1,2,3,16;
 1/7=1,10=4,18=40,26=4/3(3);
 2/29=3/2;
 7/8=1,9=1,25=1,44=-1/16;
 99//99;
 2/29=3/2;
 3/5=7,6=1,11=2,25=1,30=1,71=2,74=-58,75=-5,82=7,140=1/1,2,3;
 4/5=5,16=3,69=1/1;
 5/5=2,38=5/2;
 8/6=4,10=90,11=11/1;
 11/6=1,8=1,9=11,15=111,16=1/1,2,10;
 10/6=1/2;
 7/10=1,25=1/1,2,3,16;
 1/7=1,10=4,18=40,26=4/3(-8);
 2/29=3/2;
 6/7=2,8=2,9=2,10=2,18=1,19=2,28=1/1;
 7/8=1,9=1,25=1,44=-1/16;
 99//99;
 ---------------------------------
 CFC-14 - CF4 HARMONIC FREQUENCIES
 ---------------------------------
 Symbolic Z-matrix:
 Charge =  0 Multiplicity = 1
 C
 F                    1    r2
 F                    1    r3       2    a3
 F                    1    r4       2    a4       3    d4       0
 F                    1    r5       2    a5       3    d5       0
       Variables:
  r2                    1.3435                   
  r3                    1.3435                   
  a3                  109.47                     
  r4                    1.3435                   
  a4                  109.47                     
  d4                  240.                       
  r5                    1.3435                   
  a5                  109.47                     
  d5                  120.                       
 

 GradGradGradGradGradGradGradGradGradGradGradGradGradGradGradGradGradGrad
 Berny optimization.
 Initialization pass.
                       ----------------------------
                       !    Initial Parameters    !
                       ! (Angstroms and Degrees)  !
 ----------------------                            ----------------------
 !      Name          Value   Derivative information (Atomic Units)     !
 ------------------------------------------------------------------------
 !       r2          1.3435   calculate D2E/DX2 analytically            !
 !       r3          1.3435   calculate D2E/DX2 analytically            !
 !       a3        109.47     calculate D2E/DX2 analytically            !
 !       r4          1.3435   calculate D2E/DX2 analytically            !
 !       a4        109.47     calculate D2E/DX2 analytically            !
 !       d4        240.0      calculate D2E/DX2 analytically            !
 !       r5          1.3435   calculate D2E/DX2 analytically            !
 !       a5        109.47     calculate D2E/DX2 analytically            !
 !       d5        120.0      calculate D2E/DX2 analytically            !
 ------------------------------------------------------------------------
 Trust Radius=3.00D-01 FncErr=1.00D-07 GrdErr=1.00D-06 EigMax=2.50D+02 EigMin=1.00D-04
 Number of steps in this run=     20 maximum allowed number of steps=    100.
 GradGradGradGradGradGradGradGradGradGradGradGradGradGradGradGradGradGrad

 ---------------------------------------------------------------------------------------------------
                            Z-MATRIX (ANGSTROMS AND DEGREES)
   CD    Cent   Atom    N1       Length/X        N2       Alpha/Y        N3        Beta/Z          J
 ---------------------------------------------------------------------------------------------------
      1      1  C 
      2      2  F        1   1.343500(     1)
      3      3  F        1   1.343500(     2)      2  109.470(     5)
      4      4  F        1   1.343500(     3)      2  109.470(     6)      3  240.000(     8)      0
      5      5  F        1   1.343500(     4)      2  109.470(     7)      3  120.000(     9)      0
 ---------------------------------------------------------------------------------------------------
                         Z-Matrix orientation:                         
 ---------------------------------------------------------------------
 Center     Atomic      Atomic             Coordinates (Angstroms)
 Number     Number       Type             X           Y           Z
 ---------------------------------------------------------------------
      1          6           0        0.000000    0.000000    0.000000
      2          9           0        0.000000    0.000000    1.343500
      3          9           0        1.266673    0.000000   -0.447806
      4          9           0       -0.633337    1.096971   -0.447806
      5          9           0       -0.633337   -1.096971   -0.447806
 ---------------------------------------------------------------------
                    Distance matrix (angstroms):
                    1          2          3          4          5
     1  C    0.000000
     2  F    1.343500   0.000000
     3  F    1.343500   2.193910   0.000000
     4  F    1.343500   2.193910   2.193943   0.000000
     5  F    1.343500   2.193910   2.193943   2.193943   0.000000
 Stoichiometry    CF4
 Framework group  C3V[C3(CF),3SGV(F)]
 Deg. of freedom     3
 Full point group                 C3V     NOp   6
 Largest Abelian subgroup         CS      NOp   2
 Largest concise Abelian subgroup CS      NOp   2
                         Standard orientation:                         
 ---------------------------------------------------------------------
 Center     Atomic      Atomic             Coordinates (Angstroms)
 Number     Number       Type             X           Y           Z
 ---------------------------------------------------------------------
      1          6           0        0.000000    0.000000   -0.000017
      2          9           0        0.000000    0.000000    1.343483
      3          9           0        0.000000    1.266673   -0.447824
      4          9           0       -1.096971   -0.633337   -0.447824
      5          9           0        1.096971   -0.633337   -0.447824
 ---------------------------------------------------------------------
 Rotational constants (GHZ):           5.5266161           5.5266161           5.5264912
 General basis read from cards:  (5D, 7F)
 There are    79 symmetry adapted cartesian basis functions of A'  symmetry.
 There are    46 symmetry adapted cartesian basis functions of A"  symmetry.
 There are    71 symmetry adapted basis functions of A'  symmetry.
 There are    44 symmetry adapted basis functions of A"  symmetry.
   115 basis functions,   195 primitive gaussians,   125 cartesian basis functions
    21 alpha electrons       21 beta electrons
       nuclear repulsion energy       202.3016723833 Hartrees.
 NAtoms=    5 NActive=    5 NUniq=    3 SFac= 2.78D+00 NAtFMM=   60 NAOKFM=F Big=F
 Integral buffers will be    131072 words long.
 Raffenetti 2 integral format.
 Two-electron integral symmetry is turned on.
 Nuclear repulsion after empirical dispersion term =      202.3012951962 Hartrees.
 One-electron integrals computed using PRISM.
 NBasis=   115 RedAO= T EigKep=  1.58D-03  NBF=    71    44
 NBsUse=   115 1.00D-06 EigRej= -1.00D+00 NBFU=    71    44
 ExpMin= 3.35D-02 ExpMax= 2.95D+03 ExpMxC= 4.45D+02 IAcc=3 IRadAn=         5 AccDes= 0.00D+00
 Harris functional with IExCor= 4639 and IRadAn=       5 diagonalized for initial guess.
 HarFok:  IExCor= 4639 AccDes= 0.00D+00 IRadAn=         5 IDoV= 1 UseB2=F ITyADJ=14
 ICtDFT=  3500011 ScaDFX=  1.000000  1.000000  1.000000  1.000000
 FoFCou: FMM=F IPFlag=           0 FMFlag=      100000 FMFlg1=           0
         NFxFlg=           0 DoJE=T BraDBF=F KetDBF=T FulRan=T
         wScrn=  0.000000 ICntrl=       500 IOpCl=  0 I1Cent=   200000004 NGrid=           0
         NMat0=    1 NMatS0=      1 NMatT0=    0 NMatD0=    1 NMtDS0=    0 NMtDT0=    0
 Petite list used in FoFCou.
 Initial guess orbital symmetries:
       Occupied  (A1) (E) (E) (A1) (A1) (A1) (E) (E) (A1) (A1)
                 (E) (E) (A1) (E) (E) (E) (E) (A1) (A2) (E) (E)
       Virtual   (A1) (E) (E) (A1) (A1) (E) (E) (E) (E) (E) (E)
                 (A1) (A1) (E) (E) (A2) (A1) (A1) (E) (E) (A1)
                 (E) (E) (A1) (E) (E) (A1) (E) (E) (A1) (E) (E)
                 (A1) (E) (E) (A2) (E) (E) (E) (E) (A1) (E) (E)
                 (A2) (A1) (E) (E) (E) (E) (E) (E) (A1) (A1) (E)
                 (E) (A2) (E) (E) (E) (E) (A1) (A1) (E) (E) (A1)
                 (E) (E) (E) (E) (A1) (A1) (E) (E) (E) (E) (A2)
                 (A2) (E) (E) (E) (E) (A1) (E) (E) (A1) (A1) (E)
                 (E) (E) (E) (E) (E) (A1) (A1)
 The electronic state of the initial guess is 1-A1.
 Keep R1 ints in memory in symmetry-blocked form, NReq=66851640.
 Requested convergence on RMS density matrix=1.00D-08 within 128 cycles.
 Requested convergence on MAX density matrix=1.00D-06.
 Requested convergence on             energy=1.00D-06.
 No special actions if energy rises.
 SCF Done:  E(RwB97XD) =  -437.306004052     A.U. after    9 cycles
            NFock=  9  Conv=0.73D-08     -V/T= 2.0033
 DoSCS=F DFT=T ScalE2(SS,OS)=  1.000000  1.000000
 Range of M.O.s used for correlation:     1   115
 NBasis=   115 NAE=    21 NBE=    21 NFC=     0 NFV=     0
 NROrb=    115 NOA=    21 NOB=    21 NVA=    94 NVB=    94
 Symmetrizing basis deriv contribution to polar:
 IMax=3 JMax=2 DiffMx= 0.00D+00
 G2DrvN: will do     6 centers at a time, making    1 passes.
 Calling FoFCou, ICntrl=  3107 FMM=F I1Cent=   0 AccDes= 0.00D+00.
 End of G2Drv F.D. properties file   721 does not exist.
 End of G2Drv F.D. properties file   722 does not exist.
 End of G2Drv F.D. properties file   788 does not exist.
          IDoAtm=11111
          Differentiating once with respect to electric field.
                with respect to dipole field.
          Differentiating once with respect to nuclear coordinates.
 Keep R1 ints in memory in symmetry-blocked form, NReq=66854181.
          There are    12 degrees of freedom in the 1st order CPHF.  IDoFFX=4 NUNeed=    12.
     12 vectors produced by pass  0 Test12= 1.65D-14 8.33D-09 XBig12= 5.14D+00 6.49D-01.
 AX will form    12 AO Fock derivatives at one time.
     12 vectors produced by pass  1 Test12= 1.65D-14 8.33D-09 XBig12= 8.45D-01 2.06D-01.
     12 vectors produced by pass  2 Test12= 1.65D-14 8.33D-09 XBig12= 8.01D-02 8.14D-02.
     12 vectors produced by pass  3 Test12= 1.65D-14 8.33D-09 XBig12= 2.87D-03 1.68D-02.
     12 vectors produced by pass  4 Test12= 1.65D-14 8.33D-09 XBig12= 2.69D-05 2.06D-03.
     12 vectors produced by pass  5 Test12= 1.65D-14 8.33D-09 XBig12= 8.73D-08 6.88D-05.
     12 vectors produced by pass  6 Test12= 1.65D-14 8.33D-09 XBig12= 5.03D-10 8.08D-06.
      5 vectors produced by pass  7 Test12= 1.65D-14 8.33D-09 XBig12= 3.99D-12 5.92D-07.
      3 vectors produced by pass  8 Test12= 1.65D-14 8.33D-09 XBig12= 2.56D-14 3.54D-08.
 InvSVY:  IOpt=1 It=  1 EMax= 5.24D-16
 Solved reduced A of dimension    92 with    12 vectors.
 Isotropic polarizability for W=    0.000000       19.87 Bohr**3.
 End of Minotr F.D. properties file   721 does not exist.
 End of Minotr F.D. properties file   722 does not exist.
 End of Minotr F.D. properties file   788 does not exist.

 **********************************************************************

            Population analysis using the SCF Density.

 **********************************************************************

 Orbital symmetries:
       Occupied  (A1) (E) (E) (A1) (A1) (A1) (E) (E) (A1) (A1)
                 (E) (E) (A1) (E) (E) (E) (E) (A1) (A2) (E) (E)
       Virtual   (A1) (E) (E) (A1) (A1) (E) (E) (E) (E) (A1) (A1)
                 (E) (E) (A1) (E) (E) (A1) (A2) (E) (E) (A1) (A1)
                 (E) (E) (E) (E) (A1) (E) (E) (E) (E) (A1) (A1)
                 (E) (E) (A2) (E) (E) (E) (E) (A1) (E) (E) (A2)
                 (A1) (E) (E) (E) (E) (E) (E) (A1) (A1) (E) (E)
                 (A2) (E) (E) (E) (E) (A1) (A1) (E) (E) (E) (E)
                 (A1) (E) (E) (A1) (A1) (E) (E) (E) (E) (A2) (A2)
                 (E) (E) (E) (E) (A1) (E) (E) (A1) (A1) (E) (E)
                 (E) (E) (E) (E) (A1) (A1)
 The electronic state is 1-A1.
 Alpha  occ. eigenvalues --  -24.88288 -24.88282 -24.88282 -24.88281 -10.65620
 Alpha  occ. eigenvalues --   -1.49121  -1.38173  -1.38173  -1.38172  -0.85054
 Alpha  occ. eigenvalues --   -0.74683  -0.74683  -0.74683  -0.61124  -0.61124
 Alpha  occ. eigenvalues --   -0.58440  -0.58440  -0.58440  -0.54260  -0.54259
 Alpha  occ. eigenvalues --   -0.54259
 Alpha virt. eigenvalues --    0.07007   0.07526   0.07526   0.07526   0.17562
 Alpha virt. eigenvalues --    0.17562   0.17562   0.18568   0.18568   0.23470
 Alpha virt. eigenvalues --    0.23710   0.23711   0.23711   0.25830   0.25831
 Alpha virt. eigenvalues --    0.25831   0.25990   0.28136   0.28136   0.28136
 Alpha virt. eigenvalues --    0.39623   0.40325   0.40325   0.40325   0.49294
 Alpha virt. eigenvalues --    0.49294   0.49295   0.50971   0.50971   0.62046
 Alpha virt. eigenvalues --    0.62046   0.62046   0.66556   0.71465   0.71465
 Alpha virt. eigenvalues --    0.79222   0.79224   0.79224   0.80167   0.80167
 Alpha virt. eigenvalues --    0.80168   0.84032   0.84032   0.84032   0.87080
 Alpha virt. eigenvalues --    0.87082   0.87082   0.91489   0.91489   1.05204
 Alpha virt. eigenvalues --    1.05204   1.05205   1.40204   1.42250   1.42250
 Alpha virt. eigenvalues --    1.67801   1.67803   1.67803   1.69937   1.69937
 Alpha virt. eigenvalues --    1.69938   1.76071   1.98992   1.98992   2.02501
 Alpha virt. eigenvalues --    2.02501   2.02502   2.12651   2.12651   2.12652
 Alpha virt. eigenvalues --    2.67660   2.67662   2.67662   2.71800   2.71800
 Alpha virt. eigenvalues --    2.71800   2.80303   2.80303   2.80303   2.83242
 Alpha virt. eigenvalues --    2.83242   2.84460   2.89619   2.89619   2.89620
 Alpha virt. eigenvalues --    3.09118   3.09124   3.09124   3.39701   3.39701
 Alpha virt. eigenvalues --    3.58242   3.58242   3.58243   3.59643
          Condensed to atoms (all electrons):
               1          2          3          4          5
     1  C    3.352387  -0.030527  -0.030519  -0.030519  -0.030519
     2  F   -0.030527   9.870869  -0.049305  -0.049305  -0.049305
     3  F   -0.030519  -0.049305   9.870880  -0.049317  -0.049317
     4  F   -0.030519  -0.049305  -0.049317   9.870880  -0.049317
     5  F   -0.030519  -0.049305  -0.049317  -0.049317   9.870880
 Mulliken charges:
               1
     1  C    2.769696
     2  F   -0.692427
     3  F   -0.692423
     4  F   -0.692423
     5  F   -0.692423
 Sum of Mulliken charges =  -0.00000
 Mulliken charges with hydrogens summed into heavy atoms:
               1
     1  C    2.769696
     2  F   -0.692427
     3  F   -0.692423
     4  F   -0.692423
     5  F   -0.692423
 APT charges:
               1
     1  C    2.050129
     2  F   -0.512461
     3  F   -0.512680
     4  F   -0.512587
     5  F   -0.512587
 Sum of APT charges =  -0.00019
 APT charges with hydrogens summed into heavy atoms:
               1
     1  C    2.050129
     2  F   -0.512461
     3  F   -0.512680
     4  F   -0.512587
     5  F   -0.512587
 Electronic spatial extent (au):  <R**2>=            289.4476
 Charge=              0.0000 electrons
 Dipole moment (field-independent basis, Debye):
    X=              0.0000    Y=             -0.0000    Z=             -0.0000  Tot=              0.0000
 Quadrupole moment (field-independent basis, Debye-Ang):
   XX=            -25.7353   YY=            -25.7353   ZZ=            -25.7354
   XY=             -0.0000   XZ=              0.0000   YZ=              0.0000
 Traceless Quadrupole moment (field-independent basis, Debye-Ang):
   XX=              0.0000   YY=              0.0000   ZZ=             -0.0000
   XY=             -0.0000   XZ=              0.0000   YZ=              0.0000
 Octapole moment (field-independent basis, Debye-Ang**2):
  XXX=              0.0000  YYY=             -0.4945  ZZZ=             -0.6992  XYY=              0.0000
  XXY=              0.4945  XXZ=              0.3498  XZZ=              0.0000  YZZ=              0.0000
  YYZ=              0.3498  XYZ=              0.0000
 Hexadecapole moment (field-independent basis, Debye-Ang**3):
 XXXX=            -87.0084 YYYY=            -87.0084 ZZZZ=            -86.6834 XXXY=             -0.0000
 XXXZ=             -0.0000 YYYX=              0.0000 YYYZ=             -0.4556 ZZZX=             -0.0000
 ZZZY=             -0.0000 XXYY=            -29.0028 XXZZ=            -29.3247 YYZZ=            -29.3247
 XXYZ=              0.4556 YYXZ=             -0.0000 ZZXY=              0.0000
 N-N= 2.023012951962D+02 E-N=-1.445156173147D+03  KE= 4.358479395621D+02
 Symmetry A'   KE= 3.210952478929D+02
 Symmetry A"   KE= 1.147526916692D+02
  Exact polarizability:      19.869      -0.000      19.872      -0.000      -0.000      19.868
 Approx polarizability:      20.705      -0.000      20.705      -0.000       0.000      20.705
 Calling FoFJK, ICntrl=    100127 FMM=F ISym2X=1 I1Cent= 0 IOpClX= 0 NMat=1 NMatS=1 NMatT=0.
 ***** Axes restored to original set *****
 -------------------------------------------------------------------
 Center     Atomic                   Forces (Hartrees/Bohr)
 Number     Number              X              Y              Z
 -------------------------------------------------------------------
      1        6           0.000000000   -0.000000000    0.000002373
      2        9           0.000000000   -0.000000000   -0.022550959
      3        9          -0.021275523    0.000000000    0.007516195
      4        9           0.010637761   -0.018425143    0.007516195
      5        9           0.010637761    0.018425143    0.007516195
 -------------------------------------------------------------------
 Cartesian Forces:  Max     0.022550959 RMS     0.011650376
 -----------------------------------------------------------------------------------------------
                       Internal Coordinate Forces (Hartree/Bohr or radian)
  Cent   Atom   N1       Length/X         N2         Alpha/Y        N3         Beta/Z          J
 -----------------------------------------------------------------------------------------------
      1  C 
      2  F        1  -0.022551(     1)
      3  F        1  -0.022564(     2)      2   0.000013(     5)
      4  F        1  -0.022564(     3)      2   0.000013(     6)      3   0.000000(     8)     0
      5  F        1  -0.022564(     4)      2   0.000013(     7)      3  -0.000000(     9)     0
 -----------------------------------------------------------------------------------------------
 Internal  Forces:  Max     0.022564154 RMS     0.015040572

 GradGradGradGradGradGradGradGradGradGradGradGradGradGradGradGradGradGrad
 Berny optimization.
 Search for a local minimum.
 Step number   1 out of a maximum of   20
 All quantities printed in internal units (Hartrees-Bohrs-Radians)
 Second derivative matrix not updated -- analytic derivatives used.
 The second derivative matrix:
                          r2        r3        a3        r4        a4
           r2           0.37451
           r3           0.04927   0.37464
           a3           0.07845   0.00006   0.47665
           r4           0.04925   0.04929  -0.03928   0.37464
           a4           0.07849  -0.03928   0.14044   0.00006   0.47665
           d4           0.00000  -0.06410   0.08005   0.00000   0.00000
           r5           0.04925   0.04929  -0.03928   0.04929  -0.03928
           a5           0.07849  -0.03928   0.14044  -0.03928   0.14044
           d5          -0.00000   0.06410  -0.08005  -0.06410   0.08005
                          d4        r5        a5        d5
           d4           0.42393
           r5           0.06410   0.37464
           a5          -0.08005   0.00006   0.47665
           d5          -0.21207   0.00000   0.00000   0.42393
 ITU=  0
     Eigenvalues ---    0.14206   0.21700   0.27432   0.35389   0.36898
     Eigenvalues ---    0.37747   0.52243   0.71158   0.80851
 RFO step:  Lambda=-3.86845600D-03 EMin= 1.42060351D-01
 Linear search not attempted -- first point.
 Variable       Old X    -DE/DX   Delta X   Delta X   Delta X     New X
                                 (Linear)    (Quad)   (Total)
    r2        2.53885  -0.02255   0.00000  -0.04287  -0.04287   2.49598
    r3        2.53885  -0.02256   0.00000  -0.04286  -0.04286   2.49598
    a3        1.91061   0.00001   0.00000   0.00001   0.00001   1.91062
    r4        2.53885  -0.02256   0.00000  -0.04287  -0.04287   2.49598
    a4        1.91061   0.00001   0.00000   0.00002   0.00002   1.91063
    d4        4.18879   0.00000   0.00000   0.00000   0.00000   4.18879
    r5        2.53885  -0.02256   0.00000  -0.04287  -0.04287   2.49598
    a5        1.91061   0.00001   0.00000   0.00002   0.00002   1.91063
    d5        2.09440  -0.00000   0.00000  -0.00000  -0.00000   2.09439
         Item               Value     Threshold  Converged?
 Maximum Force            0.022564     0.000002     NO 
 RMS     Force            0.015041     0.000001     NO 
 Maximum Displacement     0.042868     0.000006     NO 
 RMS     Displacement     0.028578     0.000004     NO 
 Predicted change in Energy=-1.948444D-03
 GradGradGradGradGradGradGradGradGradGradGradGradGradGradGradGradGradGrad

 ---------------------------------------------------------------------------------------------------
                            Z-MATRIX (ANGSTROMS AND DEGREES)
   CD    Cent   Atom    N1       Length/X        N2       Alpha/Y        N3        Beta/Z          J
 ---------------------------------------------------------------------------------------------------
      1      1  C 
      2      2  F        1   1.320816(     1)
      3      3  F        1   1.320817(     2)      2  109.471(     5)
      4      4  F        1   1.320815(     3)      2  109.471(     6)      3  240.000(     8)      0
      5      5  F        1   1.320815(     4)      2  109.471(     7)      3  120.000(     9)      0
 ---------------------------------------------------------------------------------------------------
                         Z-Matrix orientation:                         
 ---------------------------------------------------------------------
 Center     Atomic      Atomic             Coordinates (Angstroms)
 Number     Number       Type             X           Y           Z
 ---------------------------------------------------------------------
      1          6           0        0.000000    0.000000    0.000000
      2          9           0        0.000000    0.000000    1.320816
      3          9           0        1.245283    0.000000   -0.440260
      4          9           0       -0.622638    1.078443   -0.440267
      5          9           0       -0.622638   -1.078443   -0.440267
 ---------------------------------------------------------------------
                    Distance matrix (angstroms):
                    1          2          3          4          5
     1  C    0.000000
     2  F    1.320816   0.000000
     3  F    1.320817   2.156876   0.000000
     4  F    1.320815   2.156880   2.156888   0.000000
     5  F    1.320815   2.156880   2.156888   2.156887   0.000000
 Stoichiometry    CF4
 Framework group  C1[X(CF4)]
 Deg. of freedom     9
 Full point group                 C1      NOp   1
 Omega: Change in point group or standard orientation.

 Old FWG=C03V [C3(C1F1),3SGV(F1)]
 New FWG=C01  [X(C1F4)]
 Largest Abelian subgroup         C1      NOp   1
 Largest concise Abelian subgroup C1      NOp   1
                         Standard orientation:                         
 ---------------------------------------------------------------------
 Center     Atomic      Atomic             Coordinates (Angstroms)
 Number     Number       Type             X           Y           Z
 ---------------------------------------------------------------------
      1          6           0        0.000002    0.000000   -0.000004
      2          9           0       -0.229920    0.000000    1.300645
      3          9           0       -1.149629    0.000001   -0.650316
      4          9           0        0.689773   -1.078444   -0.325163
      5          9           0        0.689775    1.078443   -0.325163
 ---------------------------------------------------------------------
 Rotational constants (GHZ):           5.7180515           5.7180451           5.7180096
 Basis read from rwf:  (5D, 7F)
 There are   125 symmetry adapted cartesian basis functions of A   symmetry.
 There are   115 symmetry adapted basis functions of A   symmetry.
   115 basis functions,   195 primitive gaussians,   125 cartesian basis functions
    21 alpha electrons       21 beta electrons
       nuclear repulsion energy       205.7760755844 Hartrees.
 NAtoms=    5 NActive=    5 NUniq=    5 SFac= 1.00D+00 NAtFMM=   60 NAOKFM=F Big=F
 Integral buffers will be    131072 words long.
 Raffenetti 2 integral format.
 Two-electron integral symmetry is turned on.
 Nuclear repulsion after empirical dispersion term =      205.7757335580 Hartrees.
 One-electron integrals computed using PRISM.
 NBasis=   115 RedAO= T EigKep=  1.45D-03  NBF=   115
 NBsUse=   115 1.00D-06 EigRej= -1.00D+00 NBFU=   115
 Initial guess from the checkpoint file:  "checkpoint.chk"
 B after Tr=    -0.000000    0.000000    0.000000
         Rot=    0.704403    0.061781    0.061780   -0.704402 Ang=  90.44 deg.
 ExpMin= 3.35D-02 ExpMax= 2.95D+03 ExpMxC= 4.45D+02 IAcc=3 IRadAn=         5 AccDes= 0.00D+00
 Harris functional with IExCor= 4639 and IRadAn=       5 diagonalized for initial guess.
 HarFok:  IExCor= 4639 AccDes= 0.00D+00 IRadAn=         5 IDoV= 1 UseB2=F ITyADJ=14
 ICtDFT=  3500011 ScaDFX=  1.000000  1.000000  1.000000  1.000000
 FoFCou: FMM=F IPFlag=           0 FMFlag=      100000 FMFlg1=           0
         NFxFlg=           0 DoJE=T BraDBF=F KetDBF=T FulRan=T
         wScrn=  0.000000 ICntrl=       500 IOpCl=  0 I1Cent=   200000004 NGrid=           0
         NMat0=    1 NMatS0=      1 NMatT0=    0 NMatD0=    1 NMtDS0=    0 NMtDT0=    0
 Petite list used in FoFCou.
 Keep R1 ints in memory in canonical form, NReq=49082692.
 Requested convergence on RMS density matrix=1.00D-08 within 128 cycles.
 Requested convergence on MAX density matrix=1.00D-06.
 Requested convergence on             energy=1.00D-06.
 No special actions if energy rises.
 SCF Done:  E(RwB97XD) =  -437.307851165     A.U. after    8 cycles
            NFock=  8  Conv=0.46D-08     -V/T= 2.0028
 DoSCS=F DFT=T ScalE2(SS,OS)=  1.000000  1.000000
 Range of M.O.s used for correlation:     1   115
 NBasis=   115 NAE=    21 NBE=    21 NFC=     0 NFV=     0
 NROrb=    115 NOA=    21 NOB=    21 NVA=    94 NVB=    94
 Symmetrizing basis deriv contribution to polar:
 IMax=3 JMax=2 DiffMx= 0.00D+00
 G2DrvN: will do     6 centers at a time, making    1 passes.
 Calling FoFCou, ICntrl=  3107 FMM=F I1Cent=   0 AccDes= 0.00D+00.
 End of G2Drv F.D. properties file   721 does not exist.
 End of G2Drv F.D. properties file   722 does not exist.
 End of G2Drv F.D. properties file   788 does not exist.
          IDoAtm=11111
          Differentiating once with respect to electric field.
                with respect to dipole field.
          Differentiating once with respect to nuclear coordinates.
 Keep R1 ints in memory in canonical form, NReq=49073608.
          There are    18 degrees of freedom in the 1st order CPHF.  IDoFFX=6 NUNeed=     3.
     15 vectors produced by pass  0 Test12= 1.10D-14 5.56D-09 XBig12= 4.85D+00 6.10D-01.
 AX will form    15 AO Fock derivatives at one time.
     15 vectors produced by pass  1 Test12= 1.10D-14 5.56D-09 XBig12= 7.48D-01 1.96D-01.
     15 vectors produced by pass  2 Test12= 1.10D-14 5.56D-09 XBig12= 6.96D-02 7.42D-02.
     15 vectors produced by pass  3 Test12= 1.10D-14 5.56D-09 XBig12= 2.29D-03 1.45D-02.
     15 vectors produced by pass  4 Test12= 1.10D-14 5.56D-09 XBig12= 2.29D-05 1.95D-03.
     15 vectors produced by pass  5 Test12= 1.10D-14 5.56D-09 XBig12= 6.90D-08 4.58D-05.
     15 vectors produced by pass  6 Test12= 1.10D-14 5.56D-09 XBig12= 2.89D-10 2.86D-06.
      5 vectors produced by pass  7 Test12= 1.10D-14 5.56D-09 XBig12= 1.44D-12 3.33D-07.
      3 vectors produced by pass  8 Test12= 1.10D-14 5.56D-09 XBig12= 7.62D-15 2.40D-08.
 InvSVY:  IOpt=1 It=  1 EMax= 8.88D-16
 Solved reduced A of dimension   113 with    15 vectors.
 Isotropic polarizability for W=    0.000000       19.27 Bohr**3.
 End of Minotr F.D. properties file   721 does not exist.
 End of Minotr F.D. properties file   722 does not exist.
 End of Minotr F.D. properties file   788 does not exist.
 Calling FoFJK, ICntrl=    100127 FMM=F ISym2X=0 I1Cent= 0 IOpClX= 0 NMat=1 NMatS=1 NMatT=0.
 ***** Axes restored to original set *****
 -------------------------------------------------------------------
 Center     Atomic                   Forces (Hartrees/Bohr)
 Number     Number              X              Y              Z
 -------------------------------------------------------------------
      1        6          -0.000001317    0.000000000    0.000006086
      2        9          -0.000016222   -0.000000000    0.001660614
      3        9           0.001562404   -0.000000000   -0.000531543
      4        9          -0.000772432    0.001367053   -0.000567578
      5        9          -0.000772433   -0.001367052   -0.000567578
 -------------------------------------------------------------------
 Cartesian Forces:  Max     0.001660614 RMS     0.000858559
 -----------------------------------------------------------------------------------------------
                       Internal Coordinate Forces (Hartree/Bohr or radian)
  Cent   Atom   N1       Length/X         N2         Alpha/Y        N3         Beta/Z          J
 -----------------------------------------------------------------------------------------------
      1  C 
      2  F        1   0.001661(     1)
      3  F        1   0.001650(     2)      2  -0.000049(     5)
      4  F        1   0.001670(     3)      2   0.000029(     6)      3   0.000034(     8)     0
      5  F        1   0.001670(     4)      2   0.000029(     7)      3  -0.000034(     9)     0
 -----------------------------------------------------------------------------------------------
 Internal  Forces:  Max     0.001669515 RMS     0.001108650

 GradGradGradGradGradGradGradGradGradGradGradGradGradGradGradGradGradGrad
 Berny optimization.
 Search for a local minimum.
 Step number   2 out of a maximum of   20
 All quantities printed in internal units (Hartrees-Bohrs-Radians)
 Second derivative matrix not updated -- analytic derivatives used.
 DE= -1.85D-03 DEPred=-1.95D-03 R= 9.48D-01
 TightC=F SS=  1.41D+00  RLast= 8.57D-02 DXNew= 5.0454D-01 2.5720D-01
 Trust test= 9.48D-01 RLast= 8.57D-02 DXMaxT set to 3.00D-01
 The second derivative matrix:
                          r2        r3        a3        r4        a4
           r2           0.44381
           r3           0.05510   0.44321
           a3           0.08777  -0.00016   0.51443
           r4           0.05506   0.05511  -0.04386   0.44354
           a4           0.08772  -0.04377   0.15082  -0.00005   0.51497
           d4          -0.00006  -0.07150   0.08712  -0.00008  -0.00030
           r5           0.05506   0.05511  -0.04386   0.05505  -0.04385
           a5           0.08772  -0.04377   0.15082  -0.04385   0.15058
           d5           0.00006   0.07150  -0.08712  -0.07161   0.08703
                          d4        r5        a5        d5
           d4           0.45691
           r5           0.07161   0.44354
           a5          -0.08703  -0.00005   0.51497
           d5          -0.22889   0.00008   0.00030   0.45691
 ITU=  1  0
     Eigenvalues ---    0.15580   0.24425   0.32586   0.40288   0.42123
     Eigenvalues ---    0.42223   0.60877   0.77221   0.87905
 RFO step:  Lambda=-1.80744044D-08 EMin= 1.55798544D-01
 Quintic linear search produced a step of -0.06394.
 Variable       Old X    -DE/DX   Delta X   Delta X   Delta X     New X
                                 (Linear)    (Quad)   (Total)
    r2        2.49598   0.00166   0.00274  -0.00001   0.00273   2.49871
    r3        2.49598   0.00165   0.00274   0.00002   0.00276   2.49875
    a3        1.91062  -0.00005  -0.00000  -0.00017  -0.00017   1.91045
    r4        2.49598   0.00167   0.00274  -0.00001   0.00273   2.49871
    a4        1.91063   0.00003  -0.00000   0.00009   0.00009   1.91072
    d4        4.18879   0.00003  -0.00000   0.00008   0.00008   4.18888
    r5        2.49598   0.00167   0.00274  -0.00001   0.00273   2.49871
    a5        1.91063   0.00003  -0.00000   0.00009   0.00009   1.91072
    d5        2.09439  -0.00003   0.00000  -0.00008  -0.00008   2.09431
         Item               Value     Threshold  Converged?
 Maximum Force            0.001670     0.000002     NO 
 RMS     Force            0.001109     0.000001     NO 
 Maximum Displacement     0.002763     0.000006     NO 
 RMS     Displacement     0.001829     0.000004     NO 
 Predicted change in Energy=-9.090059D-06
 GradGradGradGradGradGradGradGradGradGradGradGradGradGradGradGradGradGrad

 ---------------------------------------------------------------------------------------------------
                            Z-MATRIX (ANGSTROMS AND DEGREES)
   CD    Cent   Atom    N1       Length/X        N2       Alpha/Y        N3        Beta/Z          J
 ---------------------------------------------------------------------------------------------------
      1      1  C 
      2      2  F        1   1.322263(     1)
      3      3  F        1   1.322279(     2)      2  109.461(     5)
      4      4  F        1   1.322262(     3)      2  109.476(     6)      3  240.005(     8)      0
      5      5  F        1   1.322262(     4)      2  109.476(     7)      3  119.995(     9)      0
 ---------------------------------------------------------------------------------------------------
                         Z-Matrix orientation:                         
 ---------------------------------------------------------------------
 Center     Atomic      Atomic             Coordinates (Angstroms)
 Number     Number       Type             X           Y           Z
 ---------------------------------------------------------------------
      1          6           0        0.000000    0.000000    0.000000
      2          9           0        0.000000    0.000000    1.322263
      3          9           0        1.246737    0.000000   -0.440533
      4          9           0       -0.623209    1.079641   -0.440865
      5          9           0       -0.623209   -1.079641   -0.440865
 ---------------------------------------------------------------------
                    Distance matrix (angstroms):
                    1          2          3          4          5
     1  C    0.000000
     2  F    1.322263   0.000000
     3  F    1.322279   2.159120   0.000000
     4  F    1.322262   2.159313   2.159241   0.000000
     5  F    1.322262   2.159313   2.159241   2.159282   0.000000
 Stoichiometry    CF4
 Framework group  C1[X(CF4)]
 Deg. of freedom     9
 Full point group                 C1      NOp   1
 Largest Abelian subgroup         C1      NOp   1
 Largest concise Abelian subgroup C1      NOp   1
                         Standard orientation:                         
 ---------------------------------------------------------------------
 Center     Atomic      Atomic             Coordinates (Angstroms)
 Number     Number       Type             X           Y           Z
 ---------------------------------------------------------------------
      1          6           0        0.000047    0.000000    0.000050
      2          9           0       -0.968363    0.000012    0.900362
      3          9           0       -0.526200   -0.000010   -1.212998
      4          9           0        0.747262   -1.079642    0.156312
      5          9           0        0.747270    1.079640    0.156291
 ---------------------------------------------------------------------
 Rotational constants (GHZ):           5.7057928           5.7055768           5.7051210
 Basis read from rwf:  (5D, 7F)
 There are   125 symmetry adapted cartesian basis functions of A   symmetry.
 There are   115 symmetry adapted basis functions of A   symmetry.
   115 basis functions,   195 primitive gaussians,   125 cartesian basis functions
    21 alpha electrons       21 beta electrons
       nuclear repulsion energy       205.5503381523 Hartrees.
 NAtoms=    5 NActive=    5 NUniq=    5 SFac= 1.00D+00 NAtFMM=   60 NAOKFM=F Big=F
 Integral buffers will be    131072 words long.
 Raffenetti 2 integral format.
 Two-electron integral symmetry is turned on.
 Nuclear repulsion after empirical dispersion term =      205.5499939531 Hartrees.
 One-electron integrals computed using PRISM.
 NBasis=   115 RedAO= T EigKep=  1.46D-03  NBF=   115
 NBsUse=   115 1.00D-06 EigRej= -1.00D+00 NBFU=   115
 Initial guess from the checkpoint file:  "checkpoint.chk"
 B after Tr=     0.000000   -0.000000    0.000000
         Rot=    0.948170    0.000005    0.317763   -0.000000 Ang=  37.06 deg.
 Keep R1 ints in memory in canonical form, NReq=49082692.
 Requested convergence on RMS density matrix=1.00D-08 within 128 cycles.
 Requested convergence on MAX density matrix=1.00D-06.
 Requested convergence on             energy=1.00D-06.
 No special actions if energy rises.
 SCF Done:  E(RwB97XD) =  -437.307864724     A.U. after    7 cycles
            NFock=  7  Conv=0.36D-08     -V/T= 2.0028
 DoSCS=F DFT=T ScalE2(SS,OS)=  1.000000  1.000000
 Range of M.O.s used for correlation:     1   115
 NBasis=   115 NAE=    21 NBE=    21 NFC=     0 NFV=     0
 NROrb=    115 NOA=    21 NOB=    21 NVA=    94 NVB=    94
 Symmetrizing basis deriv contribution to polar:
 IMax=3 JMax=2 DiffMx= 0.00D+00
 G2DrvN: will do     6 centers at a time, making    1 passes.
 Calling FoFCou, ICntrl=  3107 FMM=F I1Cent=   0 AccDes= 0.00D+00.
 End of G2Drv F.D. properties file   721 does not exist.
 End of G2Drv F.D. properties file   722 does not exist.
 End of G2Drv F.D. properties file   788 does not exist.
          IDoAtm=11111
          Differentiating once with respect to electric field.
                with respect to dipole field.
          Differentiating once with respect to nuclear coordinates.
 Keep R1 ints in memory in canonical form, NReq=49073608.
          There are    18 degrees of freedom in the 1st order CPHF.  IDoFFX=6 NUNeed=     3.
     15 vectors produced by pass  0 Test12= 1.10D-14 5.56D-09 XBig12= 4.87D+00 6.12D-01.
 AX will form    15 AO Fock derivatives at one time.
     15 vectors produced by pass  1 Test12= 1.10D-14 5.56D-09 XBig12= 7.54D-01 2.08D-01.
     15 vectors produced by pass  2 Test12= 1.10D-14 5.56D-09 XBig12= 7.00D-02 7.44D-02.
     15 vectors produced by pass  3 Test12= 1.10D-14 5.56D-09 XBig12= 2.31D-03 1.47D-02.
     15 vectors produced by pass  4 Test12= 1.10D-14 5.56D-09 XBig12= 2.31D-05 1.97D-03.
     15 vectors produced by pass  5 Test12= 1.10D-14 5.56D-09 XBig12= 6.94D-08 4.62D-05.
     15 vectors produced by pass  6 Test12= 1.10D-14 5.56D-09 XBig12= 2.91D-10 3.12D-06.
      4 vectors produced by pass  7 Test12= 1.10D-14 5.56D-09 XBig12= 1.49D-12 3.44D-07.
      3 vectors produced by pass  8 Test12= 1.10D-14 5.56D-09 XBig12= 8.17D-15 2.53D-08.
 InvSVY:  IOpt=1 It=  1 EMax= 8.88D-16
 Solved reduced A of dimension   112 with    15 vectors.
 Isotropic polarizability for W=    0.000000       19.31 Bohr**3.
 End of Minotr F.D. properties file   721 does not exist.
 End of Minotr F.D. properties file   722 does not exist.
 End of Minotr F.D. properties file   788 does not exist.
 Calling FoFJK, ICntrl=    100127 FMM=F ISym2X=0 I1Cent= 0 IOpClX= 0 NMat=1 NMatS=1 NMatT=0.
 ***** Axes restored to original set *****
 -------------------------------------------------------------------
 Center     Atomic                   Forces (Hartrees/Bohr)
 Number     Number              X              Y              Z
 -------------------------------------------------------------------
      1        6           0.000051362    0.000000005   -0.000006950
      2        9          -0.000031920    0.000000003    0.000002498
      3        9           0.000005742   -0.000000004   -0.000021885
      4        9          -0.000012590   -0.000015827    0.000013165
      5        9          -0.000012594    0.000015822    0.000013172
 -------------------------------------------------------------------
 Cartesian Forces:  Max     0.000051362 RMS     0.000018953
 -----------------------------------------------------------------------------------------------
                       Internal Coordinate Forces (Hartree/Bohr or radian)
  Cent   Atom   N1       Length/X         N2         Alpha/Y        N3         Beta/Z          J
 -----------------------------------------------------------------------------------------------
      1  C 
      2  F        1   0.000002(     1)
      3  F        1   0.000013(     2)      2   0.000047(     5)
      4  F        1  -0.000011(     3)      2  -0.000025(     6)      3  -0.000044(     8)     0
      5  F        1  -0.000011(     4)      2  -0.000025(     7)      3   0.000044(     9)     0
 -----------------------------------------------------------------------------------------------
 Internal  Forces:  Max     0.000046781 RMS     0.000029401

 GradGradGradGradGradGradGradGradGradGradGradGradGradGradGradGradGradGrad
 Berny optimization.
 Search for a local minimum.
 Step number   3 out of a maximum of   20
 All quantities printed in internal units (Hartrees-Bohrs-Radians)
 Second derivative matrix not updated -- analytic derivatives used.
 DE= -1.36D-05 DEPred=-9.09D-06 R= 1.49D+00
 TightC=F SS=  1.41D+00  RLast= 5.49D-03 DXNew= 5.0454D-01 1.6464D-02
 Trust test= 1.49D+00 RLast= 5.49D-03 DXMaxT set to 3.00D-01
 The second derivative matrix:
                          r2        r3        a3        r4        a4
           r2           0.43893
           r3           0.05469   0.43916
           a3           0.08697   0.00026   0.51267
           r4           0.05464   0.05468  -0.04361   0.43889
           a4           0.08732  -0.04359   0.14984  -0.00024   0.51281
           d4           0.00003  -0.07114   0.08643  -0.00002   0.00026
           r5           0.05464   0.05468  -0.04361   0.05473  -0.04346
           a5           0.08732  -0.04359   0.14984  -0.04346   0.15025
           d5          -0.00003   0.07114  -0.08643  -0.07110   0.08669
                          d4        r5        a5        d5
           d4           0.45472
           r5           0.07110   0.43889
           a5          -0.08669  -0.00024   0.51281
           d5          -0.22768   0.00002  -0.00026   0.45472
 ITU=  1  1  0
     Eigenvalues ---    0.15462   0.24315   0.32229   0.40111   0.41804
     Eigenvalues ---    0.41871   0.60299   0.76797   0.87473
 RFO step:  Lambda=-2.16326339D-08 EMin= 1.54617404D-01
 Quintic linear search produced a step of -0.00219.
 Variable       Old X    -DE/DX   Delta X   Delta X   Delta X     New X
                                 (Linear)    (Quad)   (Total)
    r2        2.49871   0.00000  -0.00001   0.00002   0.00001   2.49872
    r3        2.49875   0.00001  -0.00001  -0.00002  -0.00002   2.49872
    a3        1.91045   0.00005   0.00000   0.00018   0.00018   1.91063
    r4        2.49871  -0.00001  -0.00001   0.00001   0.00000   2.49871
    a4        1.91072  -0.00002  -0.00000  -0.00009  -0.00009   1.91063
    d4        4.18888  -0.00004  -0.00000  -0.00010  -0.00010   4.18877
    r5        2.49871  -0.00001  -0.00001   0.00001   0.00000   2.49871
    a5        1.91072  -0.00002  -0.00000  -0.00009  -0.00009   1.91063
    d5        2.09431   0.00004   0.00000   0.00010   0.00010   2.09441
         Item               Value     Threshold  Converged?
 Maximum Force            0.000047     0.000002     NO 
 RMS     Force            0.000029     0.000001     NO 
 Maximum Displacement     0.000179     0.000006     NO 
 RMS     Displacement     0.000089     0.000004     NO 
 Predicted change in Energy=-1.091172D-08
 GradGradGradGradGradGradGradGradGradGradGradGradGradGradGradGradGradGrad

 ---------------------------------------------------------------------------------------------------
                            Z-MATRIX (ANGSTROMS AND DEGREES)
   CD    Cent   Atom    N1       Length/X        N2       Alpha/Y        N3        Beta/Z          J
 ---------------------------------------------------------------------------------------------------
      1      1  C 
      2      2  F        1   1.322268(     1)
      3      3  F        1   1.322266(     2)      2  109.471(     5)
      4      4  F        1   1.322262(     3)      2  109.471(     6)      3  239.999(     8)      0
      5      5  F        1   1.322262(     4)      2  109.471(     7)      3  120.001(     9)      0
 ---------------------------------------------------------------------------------------------------
                         Z-Matrix orientation:                         
 ---------------------------------------------------------------------
 Center     Atomic      Atomic             Coordinates (Angstroms)
 Number     Number       Type             X           Y           Z
 ---------------------------------------------------------------------
      1          6           0        0.000000    0.000000    0.000000
      2          9           0        0.000000    0.000000    1.322268
      3          9           0        1.246646    0.000000   -0.440751
      4          9           0       -0.623340    1.079614   -0.440748
      5          9           0       -0.623340   -1.079614   -0.440748
 ---------------------------------------------------------------------
                    Distance matrix (angstroms):
                    1          2          3          4          5
     1  C    0.000000
     2  F    1.322268   0.000000
     3  F    1.322266   2.159251   0.000000
     4  F    1.322262   2.159246   2.159262   0.000000
     5  F    1.322262   2.159246   2.159262   2.159228   0.000000
 Stoichiometry    CF4
 Framework group  C1[X(CF4)]
 Deg. of freedom     9
 Full point group                 C1      NOp   1
 Largest Abelian subgroup         C1      NOp   1
 Largest concise Abelian subgroup C1      NOp   1
                         Standard orientation:                         
 ---------------------------------------------------------------------
 Center     Atomic      Atomic             Coordinates (Angstroms)
 Number     Number       Type             X           Y           Z
 ---------------------------------------------------------------------
      1          6           0       -0.000006   -0.000006    0.000000
      2          9           0       -0.234940    1.301222    0.002214
      3          9           0       -1.148507   -0.655240   -0.001310
      4          9           0        0.691559   -0.324856    1.079160
      5          9           0        0.691892   -0.321122   -1.080064
 ---------------------------------------------------------------------
 Rotational constants (GHZ):           5.7055780           5.7055010           5.7054531
 Basis read from rwf:  (5D, 7F)
 There are   125 symmetry adapted cartesian basis functions of A   symmetry.
 There are   115 symmetry adapted basis functions of A   symmetry.
   115 basis functions,   195 primitive gaussians,   125 cartesian basis functions
    21 alpha electrons       21 beta electrons
       nuclear repulsion energy       205.5505877439 Hartrees.
 NAtoms=    5 NActive=    5 NUniq=    5 SFac= 1.00D+00 NAtFMM=   60 NAOKFM=F Big=F
 Integral buffers will be    131072 words long.
 Raffenetti 2 integral format.
 Two-electron integral symmetry is turned on.
 Nuclear repulsion after empirical dispersion term =      205.5502435471 Hartrees.
 One-electron integrals computed using PRISM.
 NBasis=   115 RedAO= T EigKep=  1.46D-03  NBF=   115
 NBsUse=   115 1.00D-06 EigRej= -1.00D+00 NBFU=   115
 Initial guess from the checkpoint file:  "checkpoint.chk"
 B after Tr=     0.000000    0.000000    0.000000
         Rot=    0.671469    0.670267   -0.223606    0.223323 Ang=  95.64 deg.
 Keep R1 ints in memory in canonical form, NReq=49082692.
 Requested convergence on RMS density matrix=1.00D-08 within 128 cycles.
 Requested convergence on MAX density matrix=1.00D-06.
 Requested convergence on             energy=1.00D-06.
 No special actions if energy rises.
 SCF Done:  E(RwB97XD) =  -437.307859756     A.U. after    5 cycles
            NFock=  5  Conv=0.54D-08     -V/T= 2.0028
 DoSCS=F DFT=T ScalE2(SS,OS)=  1.000000  1.000000
 Range of M.O.s used for correlation:     1   115
 NBasis=   115 NAE=    21 NBE=    21 NFC=     0 NFV=     0
 NROrb=    115 NOA=    21 NOB=    21 NVA=    94 NVB=    94
 Symmetrizing basis deriv contribution to polar:
 IMax=3 JMax=2 DiffMx= 0.00D+00
 G2DrvN: will do     6 centers at a time, making    1 passes.
 Calling FoFCou, ICntrl=  3107 FMM=F I1Cent=   0 AccDes= 0.00D+00.
 End of G2Drv F.D. properties file   721 does not exist.
 End of G2Drv F.D. properties file   722 does not exist.
 End of G2Drv F.D. properties file   788 does not exist.
          IDoAtm=11111
          Differentiating once with respect to electric field.
                with respect to dipole field.
          Differentiating once with respect to nuclear coordinates.
 Keep R1 ints in memory in canonical form, NReq=49073608.
          There are    18 degrees of freedom in the 1st order CPHF.  IDoFFX=6 NUNeed=     3.
     15 vectors produced by pass  0 Test12= 1.10D-14 5.56D-09 XBig12= 4.87D+00 6.12D-01.
 AX will form    15 AO Fock derivatives at one time.
     15 vectors produced by pass  1 Test12= 1.10D-14 5.56D-09 XBig12= 7.54D-01 1.97D-01.
     15 vectors produced by pass  2 Test12= 1.10D-14 5.56D-09 XBig12= 7.00D-02 7.44D-02.
     15 vectors produced by pass  3 Test12= 1.10D-14 5.56D-09 XBig12= 2.32D-03 1.46D-02.
     15 vectors produced by pass  4 Test12= 1.10D-14 5.56D-09 XBig12= 2.31D-05 1.97D-03.
     15 vectors produced by pass  5 Test12= 1.10D-14 5.56D-09 XBig12= 6.98D-08 4.41D-05.
     15 vectors produced by pass  6 Test12= 1.10D-14 5.56D-09 XBig12= 2.95D-10 3.06D-06.
      5 vectors produced by pass  7 Test12= 1.10D-14 5.56D-09 XBig12= 1.49D-12 3.39D-07.
      3 vectors produced by pass  8 Test12= 1.10D-14 5.56D-09 XBig12= 7.84D-15 2.55D-08.
 InvSVY:  IOpt=1 It=  1 EMax= 1.33D-15
 Solved reduced A of dimension   113 with    15 vectors.
 Isotropic polarizability for W=    0.000000       19.31 Bohr**3.
 End of Minotr F.D. properties file   721 does not exist.
 End of Minotr F.D. properties file   722 does not exist.
 End of Minotr F.D. properties file   788 does not exist.
 Calling FoFJK, ICntrl=    100127 FMM=F ISym2X=0 I1Cent= 0 IOpClX= 0 NMat=1 NMatS=1 NMatT=0.
 ***** Axes restored to original set *****
 -------------------------------------------------------------------
 Center     Atomic                   Forces (Hartrees/Bohr)
 Number     Number              X              Y              Z
 -------------------------------------------------------------------
      1        6          -0.000007269    0.000000246    0.000009538
      2        9          -0.000014900   -0.000000671   -0.000002791
      3        9          -0.000002519   -0.000000279    0.000021966
      4        9           0.000012435    0.000017817   -0.000014179
      5        9           0.000012252   -0.000017113   -0.000014534
 -------------------------------------------------------------------
 Cartesian Forces:  Max     0.000021966 RMS     0.000012084
 -----------------------------------------------------------------------------------------------
                       Internal Coordinate Forces (Hartree/Bohr or radian)
  Cent   Atom   N1       Length/X         N2         Alpha/Y        N3         Beta/Z          J
 -----------------------------------------------------------------------------------------------
      1  C 
      2  F        1  -0.000003(     1)
      3  F        1  -0.000010(     2)      2  -0.000050(     5)
      4  F        1   0.000013(     3)      2   0.000026(     6)      3   0.000046(     8)     0
      5  F        1   0.000013(     4)      2   0.000027(     7)      3  -0.000045(     9)     0
 -----------------------------------------------------------------------------------------------
 Internal  Forces:  Max     0.000049650 RMS     0.000030724

 GradGradGradGradGradGradGradGradGradGradGradGradGradGradGradGradGradGrad
 Berny optimization.
 Search for a local minimum.
 Step number   4 out of a maximum of   20
 All quantities printed in internal units (Hartrees-Bohrs-Radians)
 Second derivative matrix not updated -- analytic derivatives used.
 DE=  4.97D-06 DEPred=-1.09D-08 R=-4.55D+02
 Trust test=-4.55D+02 RLast= 2.67D-04 DXMaxT set to 1.50D-01
 The second derivative matrix:
                          r2        r3        a3        r4        a4
           r2           0.43912
           r3           0.05471   0.43853
           a3           0.08716  -0.00016   0.51190
           r4           0.05467   0.05472  -0.04354   0.43885
           a4           0.08710  -0.04345   0.15015  -0.00006   0.51244
           d4          -0.00006  -0.07099   0.08666  -0.00005  -0.00032
           r5           0.05467   0.05472  -0.04354   0.05466  -0.04355
           a5           0.08710  -0.04344   0.15017  -0.04355   0.14990
           d5           0.00006   0.07098  -0.08667  -0.07112   0.08657
                          d4        r5        a5        d5
           d4           0.45465
           r5           0.07112   0.43885
           a5          -0.08657  -0.00006   0.51244
           d5          -0.22781   0.00006   0.00036   0.45463
 ITU= -1  1  1  0
     Eigenvalues ---    0.15487   0.24247   0.32240   0.40034   0.41756
     Eigenvalues ---    0.41835   0.60292   0.76815   0.87436
 RFO step:  Lambda= 0.00000000D+00 EMin= 1.54871130D-01
 Quintic linear search produced a step of -0.98784.
 Variable       Old X    -DE/DX   Delta X   Delta X   Delta X     New X
                                 (Linear)    (Quad)   (Total)
    r2        2.49872  -0.00000  -0.00001  -0.00000  -0.00001   2.49871
    r3        2.49872  -0.00001   0.00002   0.00005   0.00008   2.49880
    a3        1.91063  -0.00005  -0.00018  -0.00003  -0.00020   1.91043
    r4        2.49871   0.00001  -0.00000  -0.00003  -0.00003   2.49868
    a4        1.91063   0.00003   0.00009   0.00001   0.00011   1.91073
    d4        4.18877   0.00005   0.00010  -0.00001   0.00010   4.18887
    r5        2.49871   0.00001  -0.00000  -0.00003  -0.00003   2.49868
    a5        1.91063   0.00003   0.00009   0.00001   0.00011   1.91073
    d5        2.09441  -0.00005  -0.00010   0.00001  -0.00010   2.09432
         Item               Value     Threshold  Converged?
 Maximum Force            0.000050     0.000002     NO 
 RMS     Force            0.000031     0.000001     NO 
 Maximum Displacement     0.000202     0.000006     NO 
 RMS     Displacement     0.000099     0.000004     NO 
 Predicted change in Energy=-4.957212D-06
 GradGradGradGradGradGradGradGradGradGradGradGradGradGradGradGradGradGrad

 ---------------------------------------------------------------------------------------------------
                            Z-MATRIX (ANGSTROMS AND DEGREES)
   CD    Cent   Atom    N1       Length/X        N2       Alpha/Y        N3        Beta/Z          J
 ---------------------------------------------------------------------------------------------------
      1      1  C 
      2      2  F        1   1.322262(     1)
      3      3  F        1   1.322307(     2)      2  109.459(     5)
      4      4  F        1   1.322246(     3)      2  109.477(     6)      3  240.004(     8)      0
      5      5  F        1   1.322246(     4)      2  109.477(     7)      3  119.996(     9)      0
 ---------------------------------------------------------------------------------------------------
                         Z-Matrix orientation:                         
 ---------------------------------------------------------------------
 Center     Atomic      Atomic             Coordinates (Angstroms)
 Number     Number       Type             X           Y           Z
 ---------------------------------------------------------------------
      1          6           0        0.000000    0.000000    0.000000
      2          9           0        0.000000    0.000000    1.322262
      3          9           0        1.246774    0.000000   -0.440513
      4          9           0       -0.623206    1.079620   -0.440874
      5          9           0       -0.623206   -1.079620   -0.440874
 ---------------------------------------------------------------------
                    Distance matrix (angstroms):
                    1          2          3          4          5
     1  C    0.000000
     2  F    1.322262   0.000000
     3  F    1.322307   2.159125   0.000000
     4  F    1.322246   2.159309   2.159260   0.000000
     5  F    1.322246   2.159309   2.159260   2.159240   0.000000
 Stoichiometry    CF4
 Framework group  C1[X(CF4)]
 Deg. of freedom     9
 Full point group                 C1      NOp   1
 Largest Abelian subgroup         C1      NOp   1
 Largest concise Abelian subgroup C1      NOp   1
                         Standard orientation:                         
 ---------------------------------------------------------------------
 Center     Atomic      Atomic             Coordinates (Angstroms)
 Number     Number       Type             X           Y           Z
 ---------------------------------------------------------------------
      1          6           0        0.000057    0.000000    0.000052
      2          9           0       -0.896380    0.000207    0.972049
      3          9           0       -0.617799    0.000055   -1.169028
      4          9           0        0.756878   -1.079751    0.098524
      5          9           0        0.757264    1.079489    0.098421
 ---------------------------------------------------------------------
 Rotational constants (GHZ):           5.7058753           5.7054763           5.7051602
 Basis read from rwf:  (5D, 7F)
 There are   125 symmetry adapted cartesian basis functions of A   symmetry.
 There are   115 symmetry adapted basis functions of A   symmetry.
   115 basis functions,   195 primitive gaussians,   125 cartesian basis functions
    21 alpha electrons       21 beta electrons
       nuclear repulsion energy       205.5504658015 Hartrees.
 NAtoms=    5 NActive=    5 NUniq=    5 SFac= 1.00D+00 NAtFMM=   60 NAOKFM=F Big=F
 Integral buffers will be    131072 words long.
 Raffenetti 2 integral format.
 Two-electron integral symmetry is turned on.
 Nuclear repulsion after empirical dispersion term =      205.5501216036 Hartrees.
 One-electron integrals computed using PRISM.
 NBasis=   115 RedAO= T EigKep=  1.46D-03  NBF=   115
 NBsUse=   115 1.00D-06 EigRej= -1.00D+00 NBFU=   115
 Lowest energy guess from the checkpoint file:  "checkpoint.chk"
 B after Tr=     0.000000    0.000000   -0.000000
         Rot=    0.999262    0.000016   -0.038418    0.000089 Ang=   4.40 deg.
 B after Tr=     0.000000    0.000000   -0.000000
         Rot=    0.679593   -0.678321    0.197701   -0.197352 Ang= -94.38 deg.
 Keep R1 ints in memory in canonical form, NReq=49082692.
 Requested convergence on RMS density matrix=1.00D-08 within 128 cycles.
 Requested convergence on MAX density matrix=1.00D-06.
 Requested convergence on             energy=1.00D-06.
 No special actions if energy rises.
 SCF Done:  E(RwB97XD) =  -437.307860894     A.U. after    5 cycles
            NFock=  5  Conv=0.30D-08     -V/T= 2.0028
 DoSCS=F DFT=T ScalE2(SS,OS)=  1.000000  1.000000
 Range of M.O.s used for correlation:     1   115
 NBasis=   115 NAE=    21 NBE=    21 NFC=     0 NFV=     0
 NROrb=    115 NOA=    21 NOB=    21 NVA=    94 NVB=    94
 Symmetrizing basis deriv contribution to polar:
 IMax=3 JMax=2 DiffMx= 0.00D+00
 G2DrvN: will do     6 centers at a time, making    1 passes.
 Calling FoFCou, ICntrl=  3107 FMM=F I1Cent=   0 AccDes= 0.00D+00.
 End of G2Drv F.D. properties file   721 does not exist.
 End of G2Drv F.D. properties file   722 does not exist.
 End of G2Drv F.D. properties file   788 does not exist.
          IDoAtm=11111
          Differentiating once with respect to electric field.
                with respect to dipole field.
          Differentiating once with respect to nuclear coordinates.
 Keep R1 ints in memory in canonical form, NReq=49073608.
          There are    18 degrees of freedom in the 1st order CPHF.  IDoFFX=6 NUNeed=     3.
     15 vectors produced by pass  0 Test12= 1.10D-14 5.56D-09 XBig12= 4.87D+00 6.12D-01.
 AX will form    15 AO Fock derivatives at one time.
     15 vectors produced by pass  1 Test12= 1.10D-14 5.56D-09 XBig12= 7.54D-01 1.97D-01.
     15 vectors produced by pass  2 Test12= 1.10D-14 5.56D-09 XBig12= 7.00D-02 7.44D-02.
     15 vectors produced by pass  3 Test12= 1.10D-14 5.56D-09 XBig12= 2.32D-03 1.47D-02.
     15 vectors produced by pass  4 Test12= 1.10D-14 5.56D-09 XBig12= 2.31D-05 1.97D-03.
     15 vectors produced by pass  5 Test12= 1.10D-14 5.56D-09 XBig12= 6.95D-08 4.73D-05.
     15 vectors produced by pass  6 Test12= 1.10D-14 5.56D-09 XBig12= 2.92D-10 3.09D-06.
      4 vectors produced by pass  7 Test12= 1.10D-14 5.56D-09 XBig12= 1.50D-12 3.45D-07.
      3 vectors produced by pass  8 Test12= 1.10D-14 5.56D-09 XBig12= 8.14D-15 2.55D-08.
 InvSVY:  IOpt=1 It=  1 EMax= 8.88D-16
 Solved reduced A of dimension   112 with    15 vectors.
 Isotropic polarizability for W=    0.000000       19.31 Bohr**3.
 End of Minotr F.D. properties file   721 does not exist.
 End of Minotr F.D. properties file   722 does not exist.
 End of Minotr F.D. properties file   788 does not exist.
 Calling FoFJK, ICntrl=    100127 FMM=F ISym2X=0 I1Cent= 0 IOpClX= 0 NMat=1 NMatS=1 NMatT=0.
 ***** Axes restored to original set *****
 -------------------------------------------------------------------
 Center     Atomic                   Forces (Hartrees/Bohr)
 Number     Number              X              Y              Z
 -------------------------------------------------------------------
      1        6           0.000068939    0.000000089    0.000008929
      2        9          -0.000037000    0.000000028   -0.000026152
      3        9           0.000006182   -0.000000016   -0.000029456
      4        9          -0.000019009    0.000003053    0.000023380
      5        9          -0.000019112   -0.000003153    0.000023299
 -------------------------------------------------------------------
 Cartesian Forces:  Max     0.000068939 RMS     0.000025333
 -----------------------------------------------------------------------------------------------
                       Internal Coordinate Forces (Hartree/Bohr or radian)
  Cent   Atom   N1       Length/X         N2         Alpha/Y        N3         Beta/Z          J
 -----------------------------------------------------------------------------------------------
      1  C 
      2  F        1  -0.000026(     1)
      3  F        1   0.000016(     2)      2   0.000064(     5)
      4  F        1   0.000004(     3)      2  -0.000065(     6)      3  -0.000035(     8)     0
      5  F        1   0.000004(     4)      2  -0.000065(     7)      3   0.000035(     9)     0
 -----------------------------------------------------------------------------------------------
 Internal  Forces:  Max     0.000065197 RMS     0.000042242

 GradGradGradGradGradGradGradGradGradGradGradGradGradGradGradGradGradGrad
 Berny optimization.
 Search for a local minimum.
 Step number   5 out of a maximum of   20
 All quantities printed in internal units (Hartrees-Bohrs-Radians)
 Second derivative matrix not updated -- analytic derivatives used.
 DE=  3.83D-06 DEPred=-4.96D-06 R=-7.73D-01
 Trust test=-7.73D-01 RLast= 7.32D-05 DXMaxT set to 7.50D-02
 The second derivative matrix:
                          r2        r3        a3        r4        a4
           r2           0.43889
           r3           0.05465   0.43858
           a3           0.08722   0.00031   0.51230
           r4           0.05467   0.05468  -0.04356   0.43880
           a4           0.08714  -0.04359   0.14992  -0.00015   0.51170
           d4          -0.00002  -0.07110   0.08647   0.00012   0.00018
           r5           0.05467   0.05468  -0.04356   0.05472  -0.04345
           a5           0.08714  -0.04359   0.14992  -0.04345   0.15024
           d5           0.00002   0.07110  -0.08647  -0.07110   0.08669
                          d4        r5        a5        d5
           d4           0.45500
           r5           0.07110   0.43880
           a5          -0.08670  -0.00015   0.51169
           d5          -0.22779  -0.00012  -0.00018   0.45500
 ITU= -1 -1  1  1  0
 Energy rises -- skip Quadratic search.
 Quintic linear search produced a step of -0.99850.
 Variable       Old X    -DE/DX   Delta X   Delta X   Delta X     New X
                                 (Linear)    (Quad)   (Total)
    r2        2.49871  -0.00003   0.00000   0.00000   0.00000   2.49871
    r3        2.49880   0.00002  -0.00005   0.00000  -0.00005   2.49875
    a3        1.91043   0.00006   0.00002   0.00000   0.00002   1.91045
    r4        2.49868   0.00000   0.00003   0.00000   0.00003   2.49871
    a4        1.91073  -0.00007  -0.00001   0.00000  -0.00001   1.91072
    d4        4.18887  -0.00004   0.00001   0.00000   0.00001   4.18888
    r5        2.49868   0.00000   0.00003   0.00000   0.00003   2.49871
    a5        1.91073  -0.00007  -0.00001   0.00000  -0.00001   1.91072
    d5        2.09432   0.00004  -0.00001   0.00000  -0.00001   2.09431
         Item               Value     Threshold  Converged?
 Maximum Force            0.000065     0.000002     NO 
 RMS     Force            0.000042     0.000001     NO 
 Maximum Displacement     0.000053     0.000006     NO 
 RMS     Displacement     0.000024     0.000004     NO 
 Predicted change in Energy=-3.829241D-06
 GradGradGradGradGradGradGradGradGradGradGradGradGradGradGradGradGradGrad

 ---------------------------------------------------------------------------------------------------
                            Z-MATRIX (ANGSTROMS AND DEGREES)
   CD    Cent   Atom    N1       Length/X        N2       Alpha/Y        N3        Beta/Z          J
 ---------------------------------------------------------------------------------------------------
      1      1  C 
      2      2  F        1   1.322263(     1)
      3      3  F        1   1.322279(     2)      2  109.461(     5)
      4      4  F        1   1.322262(     3)      2  109.476(     6)      3  240.005(     8)      0
      5      5  F        1   1.322262(     4)      2  109.476(     7)      3  119.995(     9)      0
 ---------------------------------------------------------------------------------------------------
                         Z-Matrix orientation:                         
 ---------------------------------------------------------------------
 Center     Atomic      Atomic             Coordinates (Angstroms)
 Number     Number       Type             X           Y           Z
 ---------------------------------------------------------------------
      1          6           0        0.000000    0.000000    0.000000
      2          9           0        0.000000    0.000000    1.322263
      3          9           0        1.246737    0.000000   -0.440532
      4          9           0       -0.623209    1.079641   -0.440865
      5          9           0       -0.623209   -1.079641   -0.440865
 ---------------------------------------------------------------------
                    Distance matrix (angstroms):
                    1          2          3          4          5
     1  C    0.000000
     2  F    1.322263   0.000000
     3  F    1.322279   2.159120   0.000000
     4  F    1.322262   2.159313   2.159241   0.000000
     5  F    1.322262   2.159313   2.159241   2.159282   0.000000
 Stoichiometry    CF4
 Framework group  C1[X(CF4)]
 Deg. of freedom     9
 Full point group                 C1      NOp   1
 Largest Abelian subgroup         C1      NOp   1
 Largest concise Abelian subgroup C1      NOp   1
                         Standard orientation:                         
 ---------------------------------------------------------------------
 Center     Atomic      Atomic             Coordinates (Angstroms)
 Number     Number       Type             X           Y           Z
 ---------------------------------------------------------------------
      1          6           0        0.000047    0.000000    0.000050
      2          9           0       -0.968253    0.000013    0.900481
      3          9           0       -0.526349   -0.000010   -1.212934
      4          9           0        0.747281   -1.079643    0.156220
      5          9           0        0.747290    1.079639    0.156200
 ---------------------------------------------------------------------
 Rotational constants (GHZ):           5.7057929           5.7055766           5.7051210
 Basis read from rwf:  (5D, 7F)
 There are   125 symmetry adapted cartesian basis functions of A   symmetry.
 There are   115 symmetry adapted basis functions of A   symmetry.
   115 basis functions,   195 primitive gaussians,   125 cartesian basis functions
    21 alpha electrons       21 beta electrons
       nuclear repulsion energy       205.5503383435 Hartrees.
 NAtoms=    5 NActive=    5 NUniq=    5 SFac= 1.00D+00 NAtFMM=   60 NAOKFM=F Big=F
 Integral buffers will be    131072 words long.
 Raffenetti 2 integral format.
 Two-electron integral symmetry is turned on.
 Nuclear repulsion after empirical dispersion term =      205.5499941444 Hartrees.
 One-electron integrals computed using PRISM.
 NBasis=   115 RedAO= T EigKep=  1.46D-03  NBF=   115
 NBsUse=   115 1.00D-06 EigRej= -1.00D+00 NBFU=   115
 Lowest energy guess from the checkpoint file:  "checkpoint.chk"
 B after Tr=     0.000000   -0.000000   -0.000000
         Rot=    1.000000    0.000000   -0.000061    0.000000 Ang=   0.01 deg.
 B after Tr=     0.000000   -0.000000    0.000000
         Rot=    0.999264   -0.000016    0.038357   -0.000088 Ang=  -4.40 deg.
 Keep R1 ints in memory in canonical form, NReq=49082692.
 Requested convergence on RMS density matrix=1.00D-08 within 128 cycles.
 Requested convergence on MAX density matrix=1.00D-06.
 Requested convergence on             energy=1.00D-06.
 No special actions if energy rises.
 SCF Done:  E(RwB97XD) =  -437.307864722     A.U. after    1 cycles
            NFock=  1  Conv=0.27D-08     -V/T= 2.0028
 DoSCS=F DFT=T ScalE2(SS,OS)=  1.000000  1.000000
 Range of M.O.s used for correlation:     1   115
 NBasis=   115 NAE=    21 NBE=    21 NFC=     0 NFV=     0
 NROrb=    115 NOA=    21 NOB=    21 NVA=    94 NVB=    94
 Symmetrizing basis deriv contribution to polar:
 IMax=3 JMax=2 DiffMx= 0.00D+00
 G2DrvN: will do     6 centers at a time, making    1 passes.
 Calling FoFCou, ICntrl=  3107 FMM=F I1Cent=   0 AccDes= 0.00D+00.
 End of G2Drv F.D. properties file   721 does not exist.
 End of G2Drv F.D. properties file   722 does not exist.
 End of G2Drv F.D. properties file   788 does not exist.
          IDoAtm=11111
          Differentiating once with respect to electric field.
                with respect to dipole field.
          Differentiating once with respect to nuclear coordinates.
 Keep R1 ints in memory in canonical form, NReq=49073608.
          There are    18 degrees of freedom in the 1st order CPHF.  IDoFFX=6 NUNeed=     3.
     15 vectors produced by pass  0 Test12= 1.10D-14 5.56D-09 XBig12= 4.87D+00 6.12D-01.
 AX will form    15 AO Fock derivatives at one time.
     15 vectors produced by pass  1 Test12= 1.10D-14 5.56D-09 XBig12= 7.54D-01 2.08D-01.
     15 vectors produced by pass  2 Test12= 1.10D-14 5.56D-09 XBig12= 7.00D-02 7.44D-02.
     15 vectors produced by pass  3 Test12= 1.10D-14 5.56D-09 XBig12= 2.31D-03 1.47D-02.
     15 vectors produced by pass  4 Test12= 1.10D-14 5.56D-09 XBig12= 2.31D-05 1.97D-03.
     15 vectors produced by pass  5 Test12= 1.10D-14 5.56D-09 XBig12= 6.94D-08 4.62D-05.
     15 vectors produced by pass  6 Test12= 1.10D-14 5.56D-09 XBig12= 2.91D-10 3.12D-06.
      4 vectors produced by pass  7 Test12= 1.10D-14 5.56D-09 XBig12= 1.49D-12 3.44D-07.
      3 vectors produced by pass  8 Test12= 1.10D-14 5.56D-09 XBig12= 8.17D-15 2.53D-08.
 InvSVY:  IOpt=1 It=  1 EMax= 7.77D-16
 Solved reduced A of dimension   112 with    15 vectors.
 Isotropic polarizability for W=    0.000000       19.31 Bohr**3.
 End of Minotr F.D. properties file   721 does not exist.
 End of Minotr F.D. properties file   722 does not exist.
 End of Minotr F.D. properties file   788 does not exist.
 Calling FoFJK, ICntrl=    100127 FMM=F ISym2X=0 I1Cent= 0 IOpClX= 0 NMat=1 NMatS=1 NMatT=0.
 ***** Axes restored to original set *****
 -------------------------------------------------------------------
 Center     Atomic                   Forces (Hartrees/Bohr)
 Number     Number              X              Y              Z
 -------------------------------------------------------------------
      1        6           0.000051333    0.000000006   -0.000006944
      2        9          -0.000031892    0.000000003    0.000002446
      3        9           0.000005757   -0.000000004   -0.000021904
      4        9          -0.000012597   -0.000015794    0.000013198
      5        9          -0.000012601    0.000015789    0.000013204
 -------------------------------------------------------------------
 Cartesian Forces:  Max     0.000051333 RMS     0.000018946
 -----------------------------------------------------------------------------------------------
                       Internal Coordinate Forces (Hartree/Bohr or radian)
  Cent   Atom   N1       Length/X         N2         Alpha/Y        N3         Beta/Z          J
 -----------------------------------------------------------------------------------------------
      1  C 
      2  F        1   0.000002(     1)
      3  F        1   0.000013(     2)      2   0.000047(     5)
      4  F        1  -0.000011(     3)      2  -0.000025(     6)      3  -0.000044(     8)     0
      5  F        1  -0.000011(     4)      2  -0.000025(     7)      3   0.000044(     9)     0
 -----------------------------------------------------------------------------------------------
 Internal  Forces:  Max     0.000046813 RMS     0.000029416

 GradGradGradGradGradGradGradGradGradGradGradGradGradGradGradGradGradGrad
 Berny optimization.
 Search for a local minimum.
 Step number   6 out of a maximum of   20
 All quantities printed in internal units (Hartrees-Bohrs-Radians)
 Second derivative matrix not updated -- analytic derivatives used.
 The second derivative matrix:
                          r2        r3        a3        r4        a4
           r2           0.43893
           r3           0.05469   0.43916
           a3           0.08697   0.00026   0.51267
           r4           0.05464   0.05468  -0.04361   0.43889
           a4           0.08732  -0.04359   0.14984  -0.00024   0.51281
           d4           0.00003  -0.07114   0.08643  -0.00002   0.00026
           r5           0.05464   0.05468  -0.04361   0.05473  -0.04346
           a5           0.08732  -0.04359   0.14984  -0.04346   0.15025
           d5          -0.00003   0.07114  -0.08643  -0.07110   0.08669
                          d4        r5        a5        d5
           d4           0.45472
           r5           0.07110   0.43889
           a5          -0.08669  -0.00024   0.51281
           d5          -0.22768   0.00002  -0.00026   0.45472
 ITU=  0 -1 -1  1  1  0
     Eigenvalues ---    0.15462   0.24315   0.32229   0.40111   0.41804
     Eigenvalues ---    0.41871   0.60299   0.76797   0.87473
 RFO step:  Lambda=-2.18613268D-08 EMin= 1.54617536D-01
 Skip linear search -- no minimum in search direction.
 Variable       Old X    -DE/DX   Delta X   Delta X   Delta X     New X
                                 (Linear)    (Quad)   (Total)
[...]

 ---------------------------------------------------------------------------------------------------
                            Z-MATRIX (ANGSTROMS AND DEGREES)
   CD    Cent   Atom    N1       Length/X        N2       Alpha/Y        N3        Beta/Z          J
 ---------------------------------------------------------------------------------------------------
      1      1  C 
      2      2  F        1   1.322268(     1)
      3      3  F        1   1.322265(     2)      2  109.471(     5)
      4      4  F        1   1.322263(     3)      2  109.471(     6)      3  239.999(     8)      0
      5      5  F        1   1.322263(     4)      2  109.471(     7)      3  120.001(     9)      0
 ---------------------------------------------------------------------------------------------------
                         Z-Matrix orientation:                         
 ---------------------------------------------------------------------
 Center     Atomic      Atomic             Coordinates (Angstroms)
 Number     Number       Type             X           Y           Z
 ---------------------------------------------------------------------
      1          6           0        0.000000    0.000000    0.000000
      2          9           0        0.000000    0.000000    1.322268
      3          9           0        1.246644    0.000000   -0.440753
      4          9           0       -0.623341    1.079614   -0.440747
      5          9           0       -0.623341   -1.079614   -0.440747
 ---------------------------------------------------------------------
                    Distance matrix (angstroms):
                    1          2          3          4          5
     1  C    0.000000
     2  F    1.322268   0.000000
     3  F    1.322265   2.159251   0.000000
     4  F    1.322263   2.159246   2.159262   0.000000
     5  F    1.322263   2.159246   2.159262   2.159228   0.000000
 Stoichiometry    CF4
 Framework group  C1[X(CF4)]
 Deg. of freedom     9
 Full point group                 C1      NOp   1
 Largest Abelian subgroup         C1      NOp   1
 Largest concise Abelian subgroup C1      NOp   1
                         Standard orientation:                         
 ---------------------------------------------------------------------
 Center     Atomic      Atomic             Coordinates (Angstroms)
 Number     Number       Type             X           Y           Z
 ---------------------------------------------------------------------
      1          6           0       -0.000007   -0.000006    0.000000
      2          9           0       -0.193916    1.307965    0.002376
      3          9           0       -1.168538   -0.618811   -0.001335
      4          9           0        0.681049   -0.346563    1.079092
      5          9           0        0.681410   -0.342587   -1.080133
 ---------------------------------------------------------------------
 Rotational constants (GHZ):           5.7055756           5.7055018           5.7054560

 **********************************************************************

            Population analysis using the SCF Density.

 **********************************************************************

 Orbital symmetries:
       Occupied  (A) (A) (A) (A) (A) (A) (A) (A) (A) (A) (A) (A)
                 (A) (A) (A) (A) (A) (A) (A) (A) (A)
       Virtual   (A) (A) (A) (A) (A) (A) (A) (A) (A) (A) (A) (A)
                 (A) (A) (A) (A) (A) (A) (A) (A) (A) (A) (A) (A)
                 (A) (A) (A) (A) (A) (A) (A) (A) (A) (A) (A) (A)
                 (A) (A) (A) (A) (A) (A) (A) (A) (A) (A) (A) (A)
                 (A) (A) (A) (A) (A) (A) (A) (A) (A) (A) (A) (A)
                 (A) (A) (A) (A) (A) (A) (A) (A) (A) (A) (A) (A)
                 (A) (A) (A) (A) (A) (A) (A) (A) (A) (A) (A) (A)
                 (A) (A) (A) (A) (A) (A) (A) (A) (A) (A)
 The electronic state is 1-A.
 Alpha  occ. eigenvalues --  -24.88024 -24.88018 -24.88017 -24.88017 -10.64859
 Alpha  occ. eigenvalues --   -1.50448  -1.38702  -1.38702  -1.38701  -0.84993
 Alpha  occ. eigenvalues --   -0.75274  -0.75273  -0.75273  -0.61444  -0.61444
 Alpha  occ. eigenvalues --   -0.58572  -0.58572  -0.58572  -0.54092  -0.54092
 Alpha  occ. eigenvalues --   -0.54092
 Alpha virt. eigenvalues --    0.07168   0.07496   0.07496   0.07497   0.17859
 Alpha virt. eigenvalues --    0.17859   0.17859   0.18589   0.18589   0.24534
 Alpha virt. eigenvalues --    0.24534   0.24535   0.25733   0.26857   0.26857
 Alpha virt. eigenvalues --    0.26858   0.27205   0.28141   0.28141   0.28141
 Alpha virt. eigenvalues --    0.39943   0.40544   0.40547   0.40548   0.49793
 Alpha virt. eigenvalues --    0.49795   0.49796   0.51244   0.51245   0.62198
 Alpha virt. eigenvalues --    0.62199   0.62200   0.66367   0.72077   0.72078
 Alpha virt. eigenvalues --    0.79788   0.79788   0.79790   0.80239   0.80240
 Alpha virt. eigenvalues --    0.80240   0.83482   0.83482   0.83482   0.86693
 Alpha virt. eigenvalues --    0.86693   0.86694   0.92694   0.92695   1.06301
 Alpha virt. eigenvalues --    1.06301   1.06302   1.39735   1.42474   1.42474
 Alpha virt. eigenvalues --    1.69733   1.69734   1.69735   1.70676   1.70676
 Alpha virt. eigenvalues --    1.70678   1.77173   1.98177   1.98178   2.02781
 Alpha virt. eigenvalues --    2.02781   2.02782   2.17262   2.17262   2.17262
 Alpha virt. eigenvalues --    2.67162   2.67164   2.67166   2.71092   2.71092
 Alpha virt. eigenvalues --    2.71092   2.79972   2.79972   2.79973   2.83046
 Alpha virt. eigenvalues --    2.83047   2.86203   2.90109   2.90110   2.90111
 Alpha virt. eigenvalues --    3.12031   3.12031   3.12034   3.44873   3.44875
 Alpha virt. eigenvalues --    3.60080   3.60081   3.60082   3.65200
          Condensed to atoms (all electrons):
               1          2          3          4          5
     1  C    3.396976  -0.040214  -0.040253  -0.040146  -0.040146
     2  F   -0.040214   9.880749  -0.049853  -0.049859  -0.049859
     3  F   -0.040253  -0.049853   9.880776  -0.049849  -0.049849
     4  F   -0.040146  -0.049859  -0.049849   9.880645  -0.049867
     5  F   -0.040146  -0.049859  -0.049849  -0.049867   9.880644
 Mulliken charges:
               1
     1  C    2.763783
     2  F   -0.690964
     3  F   -0.690972
     4  F   -0.690924
     5  F   -0.690923
 Sum of Mulliken charges =  -0.00000
 Mulliken charges with hydrogens summed into heavy atoms:
               1
     1  C    2.763783
     2  F   -0.690964
     3  F   -0.690972
     4  F   -0.690924
     5  F   -0.690923
 APT charges:
               1
     1  C    2.067503
     2  F   -0.516788
     3  F   -0.517096
     4  F   -0.516810
     5  F   -0.516809
 Sum of APT charges =  -0.00000
 APT charges with hydrogens summed into heavy atoms:
               1
     1  C    2.067503
     2  F   -0.516788
     3  F   -0.517096
     4  F   -0.516810
     5  F   -0.516809
 Electronic spatial extent (au):  <R**2>=            281.9443
 Charge=             -0.0000 electrons
 Dipole moment (field-independent basis, Debye):
    X=             -0.0001    Y=             -0.0000    Z=              0.0000  Tot=              0.0001
 Quadrupole moment (field-independent basis, Debye-Ang):
   XX=            -25.6340   YY=            -25.6342   ZZ=            -25.6341
   XY=              0.0000   XZ=             -0.0000   YZ=              0.0000
 Traceless Quadrupole moment (field-independent basis, Debye-Ang):
   XX=              0.0001   YY=             -0.0001   ZZ=             -0.0000
   XY=              0.0000   XZ=             -0.0000   YZ=              0.0000
 Octapole moment (field-independent basis, Debye-Ang**2):
  XXX=              0.3456  YYY=             -0.6837  ZZZ=              0.0013  XYY=              0.2198
  XXY=              0.3975  XXZ=              0.0010  XZZ=             -0.5657  YZZ=              0.2862
  YYZ=             -0.0023  XYZ=              0.0015
 Hexadecapole moment (field-independent basis, Debye-Ang**3):
 XXXX=            -84.9584 YYYY=            -84.4417 ZZZZ=            -84.6870 XXXY=              0.4863
 XXXZ=              0.0008 YYYX=             -0.1360 YYYZ=              0.0027 ZZZX=             -0.0019
 ZZZY=             -0.0024 XXYY=            -28.3627 XXZZ=            -28.1163 YYZZ=            -28.6317
 XXYZ=             -0.0003 YYXZ=              0.0011 ZZXY=             -0.3502
 N-N= 2.055502509468D+02 E-N=-1.451795485458D+03  KE= 4.360805686584D+02
  Exact polarizability:      19.311       0.002      19.311       0.000       0.000      19.309
 Approx polarizability:      20.047       0.000      20.047      -0.000       0.000      20.047
 Rotating derivatives to standard orientation.
 Full mass-weighted force constant matrix:
 Low frequencies ---   -8.3022   -0.0010   -0.0009   -0.0008   10.2483   14.8332
 Low frequencies ---  430.0900  430.1001  625.1820
 Diagonal vibrational polarizability:
        7.1366660       7.1294873       7.1251005
 Harmonic frequencies (cm**-1), IR intensities (KM/Mole), Raman scattering
 activities (A**4/AMU), depolarization ratios for plane and unpolarized
 incident light, reduced masses (AMU), force constants (mDyne/A),
 and normal coordinates:
                      1                      2                      3
                      A                      A                      A
 Frequencies --    430.0899               430.1001               625.1820
 Red. masses --     18.9984                18.9984                18.1397
 Frc consts  --      2.0706                 2.0706                 4.1773
 IR Inten    --      0.0000                 0.0000                 4.0415
  Atom  AN      X      Y      Z        X      Y      Z        X      Y      Z
     1   6    -0.00  -0.00  -0.00     0.00   0.00  -0.00     0.01  -0.02  -0.35
     2   9    -0.09  -0.01  -0.49     0.49   0.07  -0.09    -0.01  -0.03   0.38
     3   9    -0.04   0.08   0.49     0.23  -0.43   0.09    -0.01   0.02   0.38
     4   9    -0.15  -0.47  -0.05    -0.40   0.10   0.28    -0.41   0.22  -0.25
     5   9     0.29   0.40   0.05    -0.32   0.26  -0.28     0.42  -0.20  -0.30
                      4                      5                      6
                      A                      A                      A
 Frequencies --    625.2536               625.2909               915.7784
 Red. masses --     18.1397                18.1409                18.9984
 Frc consts  --      4.1782                 4.1790                 9.3875
 IR Inten    --      4.0419                 4.0146                 0.0001
  Atom  AN      X      Y      Z        X      Y      Z        X      Y      Z
     1   6     0.28  -0.21   0.02     0.21   0.28  -0.01     0.00   0.00  -0.00
     2   9    -0.20  -0.46  -0.02    -0.33   0.38   0.01    -0.07   0.49   0.00
     3   9     0.06   0.43  -0.02     0.56   0.11   0.01    -0.44  -0.23  -0.00
     4   9     0.01   0.07   0.47    -0.19  -0.33   0.08     0.26  -0.13   0.41
     5   9    -0.04   0.10  -0.44    -0.17  -0.34  -0.09     0.26  -0.13  -0.41
                      7                      8                      9
                      A                      A                      A
 Frequencies --   1279.2783              1279.7825              1279.8178
 Red. masses --     13.0449                13.0454                13.0453
 Frc consts  --     12.5783                12.5887                12.5893
 IR Inten    --    417.2618               416.7061               416.9334
  Atom  AN      X      Y      Z        X      Y      Z        X      Y      Z
     1   6     0.89   0.25   0.01    -0.02   0.04   0.92    -0.25   0.89  -0.04
     2   9    -0.05  -0.05  -0.00     0.00  -0.02  -0.06     0.05  -0.32   0.00
     3   9    -0.29  -0.14  -0.00    -0.00  -0.00  -0.06    -0.04  -0.08   0.00
     4   9    -0.11   0.02  -0.09    -0.11   0.05  -0.23     0.07  -0.08   0.10
     5   9    -0.11   0.01   0.09     0.12  -0.06  -0.24     0.06  -0.08  -0.07

 -------------------
 - Thermochemistry -
 -------------------
 Temperature   298.150 Kelvin.  Pressure   1.00000 Atm.
 Atom     1 has atomic number  6 and mass  12.00000
 Atom     2 has atomic number  9 and mass  18.99840
 Atom     3 has atomic number  9 and mass  18.99840
 Atom     4 has atomic number  9 and mass  18.99840
 Atom     5 has atomic number  9 and mass  18.99840
 Molecular mass:    87.99361 amu.
 Principal axes and moments of inertia in atomic units:
                           1         2         3
     Eigenvalues --   316.31186 316.31595 316.31849
           X            1.00000   0.00000   0.00000
           Y           -0.00000   1.00000   0.00000
           Z           -0.00000  -0.00000   1.00000
 This molecule is an asymmetric top.
 Rotational symmetry number  1.
 Rotational temperatures (Kelvin)      0.27382     0.27382     0.27382
 Rotational constants (GHZ):           5.70558     5.70550     5.70546
 Zero-point vibrational energy      44803.6 (Joules/Mol)
                                   10.70831 (Kcal/Mol)
 Warning -- explicit consideration of   2 degrees of freedom as
           vibrations may cause significant error
 Vibrational temperatures:    618.80   618.82   899.50   899.60   899.65
          (Kelvin)           1317.60  1840.60  1841.32  1841.37
 
 Zero-point correction=                           0.017065 (Hartree/Particle)
 Thermal correction to Energy=                    0.020987
 Thermal correction to Enthalpy=                  0.021931
 Thermal correction to Gibbs Free Energy=        -0.010122
 Sum of electronic and zero-point Energies=           -437.290799
 Sum of electronic and thermal Energies=              -437.286877
 Sum of electronic and thermal Enthalpies=            -437.285933
 Sum of electronic and thermal Free Energies=         -437.317986
 
                     E (Thermal)             CV                S
                      KCal/Mol        Cal/Mol-Kelvin    Cal/Mol-Kelvin
 Total                   13.169             12.661             67.461
 Electronic               0.000              0.000              0.000
 Translational            0.889              2.981             39.337
 Rotational               0.889              2.981             24.963
 Vibrational             11.392              6.699              3.162
 Vibration     1          0.791              1.405              0.858
 Vibration     2          0.791              1.405              0.858
                       Q            Log10(Q)             Ln(Q)
 Total Bot       0.452617D+05          4.655731         10.720216
 Total V=0       0.319874D+13         12.504979         28.793777
 Vib (Bot)       0.219065D-07         -7.659426        -17.636481
 Vib (Bot)    1  0.405093D+00         -0.392446         -0.903640
 Vib (Bot)    2  0.405080D+00         -0.392459         -0.903671
 Vib (V=0)       0.154818D+01          0.189822          0.437081
 Vib (V=0)    1  0.114351D+01          0.058238          0.134099
 Vib (V=0)    2  0.114350D+01          0.058235          0.134092
 Electronic      0.100000D+01          0.000000          0.000000
 Translational   0.324437D+08          7.511131         17.295017
 Rotational      0.636834D+05          4.804026         11.061679
 ***** Axes restored to original set *****
 -------------------------------------------------------------------
 Center     Atomic                   Forces (Hartrees/Bohr)
 Number     Number              X              Y              Z
 -------------------------------------------------------------------
      1        6          -0.000007036    0.000000310    0.000002255
      2        9          -0.000004942   -0.000000714    0.000001433
      3        9          -0.000013140    0.000000159    0.000022689
      4        9           0.000012503    0.000019719   -0.000012741
      5        9           0.000012616   -0.000019475   -0.000013636
 -------------------------------------------------------------------
 Cartesian Forces:  Max     0.000022689 RMS     0.000012113
 -----------------------------------------------------------------------------------------------
                       Internal Coordinate Forces (Hartree/Bohr or radian)
  Cent   Atom   N1       Length/X         N2         Alpha/Y        N3         Beta/Z          J
 -----------------------------------------------------------------------------------------------
      1  C 
      2  F        1   0.000001(     1)
      3  F        1  -0.000020(     2)      2  -0.000043(     5)
      4  F        1   0.000014(     3)      2   0.000021(     6)      3   0.000049(     8)     0
      5  F        1   0.000014(     4)      2   0.000023(     7)      3  -0.000049(     9)     0
 -----------------------------------------------------------------------------------------------
 Internal  Forces:  Max     0.000048735 RMS     0.000030470

 ----------------------------------------------------------------------

 Electric dipole moment (input orientation):
 (Debye = 10**-18 statcoulomb cm , SI units = C m)
                  (au)            (Debye)         (10**-30 SI)
   Tot        0.278283D-04      0.707324D-04      0.235938D-03
   x          0.233894D-04      0.594499D-04      0.198304D-03
   y          0.000000D+00      0.000000D+00      0.000000D+00
   z         -0.150781D-04     -0.383247D-04     -0.127837D-03

 Dipole polarizability, Alpha (input orientation).
 (esu units = cm**3 , SI units = C**2 m**2 J**-1)
 Alpha(0;0):
               (au)            (10**-24 esu)      (10**-40 SI)
   iso        0.193100D+02      0.286145D+01      0.318379D+01
   aniso      0.416808D-02      0.617646D-03      0.687224D-03
   xx         0.193115D+02      0.286166D+01      0.318403D+01
   yx         0.000000D+00      0.000000D+00      0.000000D+00
   yy         0.193087D+02      0.286126D+01      0.318358D+01
   zx        -0.198622D-02     -0.294327D-03     -0.327483D-03
   zy         0.134732D-04      0.199652D-05      0.222143D-05
   zz         0.193099D+02      0.286143D+01      0.318377D+01

 ----------------------------------------------------------------------

 Dipole orientation:
     6         -0.00000000         -0.00000000          0.00000000
     9          2.10010377         -0.01732027         -1.35384248
     9          0.57645586          0.01467499          2.43127131
     9         -1.34599151         -2.03878913         -0.52461359
     9         -1.33057352          2.04143395         -0.55289720

 Electric dipole moment (dipole orientation):
 (Debye = 10**-18 statcoulomb cm , SI units = C m)
                  (au)            (Debye)         (10**-30 SI)
   Tot        0.278289D-04      0.707341D-04      0.235944D-03
   x          0.000000D+00      0.000000D+00      0.000000D+00
   y          0.000000D+00      0.000000D+00      0.000000D+00
   z          0.278289D-04      0.707341D-04      0.235944D-03

 Dipole polarizability, Alpha (dipole orientation).
 (esu units = cm**3 , SI units = C**2 m**2 J**-1)
 Alpha(0;0):
               (au)            (10**-24 esu)      (10**-40 SI)
   iso        0.193100D+02      0.286145D+01      0.318379D+01
   aniso      0.416808D-02      0.617646D-03      0.687224D-03
   xx         0.193086D+02      0.286123D+01      0.318355D+01
   yx         0.000000D+00      0.000000D+00      0.000000D+00
   yy         0.193087D+02      0.286126D+01      0.318358D+01
   zx        -0.118801D-03     -0.176044D-04     -0.195876D-04
   zy         0.434390D-04      0.643700D-05      0.716212D-05
   zz         0.193128D+02      0.286186D+01      0.318425D+01

 ----------------------------------------------------------------------


 NOTHING MAKES A PERSON MORE PRODUCTIVE THAN THE LAST MINUTE.
 Error termination request processed by link 9999.
 Error termination via Lnk1e in /apps/gaussian/g16c01/g16/l9999.exe at Sun Aug  2 12:30:32 2020.
 Job cpu time:       0 days  0 hours 46 minutes 23.5 seconds.
 Elapsed time:       0 days  0 hours 11 minutes 39.7 seconds.
 File lengths (MBytes):  RWF=     14 Int=      0 D2E=      0 Chk=      2 Scr=      1
