 Entering Gaussian System, Link 0=g16
 Input=CFC-13.gjf
 Output=CFC-13.log
 Initial command:
 /apps/gaussian/g16c01/g16/l1.exe "/jobfs/11529056.gadi-pbs/Gau-372844.inp" -scrdir="/jobfs/11529056.gadi-pbs/"
 Entering Link 1 = /apps/gaussian/g16c01/g16/l1.exe PID=    372845.
  
 Copyright (c) 1988-2019, Gaussian, Inc.  All Rights Reserved.
  
 This is part of the Gaussian(R) 16 program.  It is based on
 the Gaussian(R) 09 system (copyright 2009, Gaussian, Inc.),
 the Gaussian(R) 03 system (copyright 2003, Gaussian, Inc.),
 the Gaussian(R) 98 system (copyright 1998, Gaussian, Inc.),
 the Gaussian(R) 94 system (copyright 1995, Gaussian, Inc.),
 the Gaussian 92(TM) system (copyright 1992, Gaussian, Inc.),
 the Gaussian 90(TM) system (copyright 1990, Gaussian, Inc.),
 the Gaussian 88(TM) system (copyright 1988, Gaussian, Inc.),
 the Gaussian 86(TM) system (copyright 1986, Carnegie Mellon
 University), and the Gaussian 82(TM) system (copyright 1983,
 Carnegie Mellon University). Gaussian is a federally registered
 trademark of Gaussian, Inc.
  
 This software contains proprietary and confidential information,
 including trade secrets, belonging to Gaussian, Inc.
  
 This software is provided under written license and may be
 used, copied, transmitted, or stored only in accord with that
 written license.
  
 The following legend is applicable only to US Government
 contracts under FAR:
  
                    RESTRICTED RIGHTS LEGEND
  
 Use, reproduction and disclosure by the US Government is
 subject to restrictions as set forth in subparagraphs (a)
 and (c) of the Commercial Computer Software - Restricted
 Rights clause in FAR 52.227-19.
  
 Gaussian, Inc.
 340 Quinnipiac St., Bldg. 40, Wallingford CT 06492
  
  
 ---------------------------------------------------------------
 Warning -- This program may not be used in any manner that
 competes with the business of Gaussian, Inc. or will provide
 assistance to any competitor of Gaussian, Inc.  The licensee
 of this program is prohibited from giving any competitor of
 Gaussian, Inc. access to this program.  By using this program,
 the user acknowledges that Gaussian, Inc. is engaged in the
 business of creating and licensing software in the field of
 computational chemistry and represents and warrants to the
 licensee that it is not a competitor of Gaussian, Inc. and that
 it will not use this program in any manner prohibited above.
 ---------------------------------------------------------------
  

 Cite this work as:
 Gaussian 16, Revision C.01,
 M. J. Frisch, G. W. Trucks, H. B. Schlegel, G. E. Scuseria, 
 M. A. Robb, J. R. Cheeseman, G. Scalmani, V. Barone, 
 G. A. Petersson, H. Nakatsuji, X. Li, M. Caricato, A. V. Marenich, 
 J. Bloino, B. G. Janesko, R. Gomperts, B. Mennucci, H. P. Hratchian, 
 J. V. Ortiz, A. F. Izmaylov, J. L. Sonnenberg, D. Williams-Young, 
 F. Ding, F. Lipparini, F. Egidi, J. Goings, B. Peng, A. Petrone, 
 T. Henderson, D. Ranasinghe, V. G. Zakrzewski, J. Gao, N. Rega, 
 G. Zheng, W. Liang, M. Hada, M. Ehara, K. Toyota, R. Fukuda, 
 J. Hasegawa, M. Ishida, T. Nakajima, Y. Honda, O. Kitao, H. Nakai, 
 T. Vreven, K. Throssell, J. A. Montgomery, Jr., J. E. Peralta, 
 F. Ogliaro, M. J. Bearpark, J. J. Heyd, E. N. Brothers, K. N. Kudin, 
 V. N. Staroverov, T. A. Keith, R. Kobayashi, J. Normand, 
 K. Raghavachari, A. P. Rendell, J. C. Burant, S. S. Iyengar, 
 J. Tomasi, M. Cossi, J. M. Millam, M. Klene, C. Adamo, R. Cammi, 
 J. W. Ochterski, R. L. Martin, K. Morokuma, O. Farkas, 
 J. B. Foresman, and D. J. Fox, Gaussian, Inc., Wallingford CT, 2019.
 
 ******************************************
 Gaussian 16:  ES64L-G16RevC.01  3-Jul-2019
                21-Sep-2020 
 ******************************************
 %NprocShared=4
 Will use up to    4 processors via shared memory.
 %chk=checkpoint.chk
 -------------------------------------------------------------------
 # B2PLYP/cc-pVTZ Freq Opt=(VeryTight,ZMatrix,CalcAll) Int=UltraFine
 -------------------------------------------------------------------
 1/7=1,10=4,18=40,38=1/1,3;
 2/12=2,17=6,18=5,29=3,40=1/2;
 3/5=16,6=1,11=9,25=1,30=1,71=2,74=-47,75=-5,140=1/1,2,3;
 4//1;
 5/5=2,38=5/2;
 8/6=3,8=1,10=1,19=11,30=-1/1;
 9/15=3,16=-3/6;
 11/6=1,8=1,15=11,17=12,24=-1,27=1,28=-2,29=300,32=6,42=3/1,2,10;
 10/6=2,21=1/2;
 8/6=4,8=1,10=1,19=11,30=-1/11,4;
 10/5=1,20=4/2;
 11/12=2,14=11,16=1,17=2,28=-2,42=3,76=2/2,10,12;
 6/7=2,8=2,9=2,10=2,18=1/1;
 7/10=1,12=2,25=1,44=2/1,2,3,16;
 1/7=1,10=4,18=40/3(3);
 2/29=3/2;
 7/8=1,9=1,25=1,44=-1/16;
 99//99;
 2/29=3/2;
 3/5=16,6=1,11=9,25=1,30=1,71=2,74=-47,75=-5,140=1/1,2,3;
 4/5=5,16=3,69=1/1;
 5/5=2,38=5/2;
 8/6=3,8=1,10=1,19=11,30=-1/1;
 9/15=3,16=-3/6;
 11/6=1,8=1,15=11,17=12,24=-1,27=1,28=-2,29=300,32=6,42=3/1,2,10;
 10/6=2,21=1/2;
 8/6=4,8=1,10=1,19=11,30=-1/11,4;
 10/5=1,20=4/2;
 11/12=2,14=11,16=1,17=2,28=-2,42=3,76=2/2,10,12;
 7/10=1,12=2,25=1,44=2/1,2,3,16;
 1/7=1,10=4,18=40/3(-12);
 2/29=3/2;
 6/7=2,8=2,9=2,10=2,18=1/1;
 7/8=1,9=1,25=1,44=-1/16;
 99//99;
 -----------------------------------
 CFC-13 - CClF3 HARMONIC FREQUENCIES
 -----------------------------------
 Symbolic Z-matrix:
 Charge =  0 Multiplicity = 1
 C
 F                    1    r2
 F                    1    r3       2    a3
 F                    1    r4       2    a4       3    d4       0
 Cl                   1    r5       2    a5       3    d5       0
       Variables:
  r2                    1.3524                   
  r3                    1.3524                   
  a3                  107.8                      
  r4                    1.3524                   
  a4                  107.8                      
  d4                  243.88                     
  r5                    1.7547                   
  a5                  111.1                      
  d5                  121.94                     
 

 GradGradGradGradGradGradGradGradGradGradGradGradGradGradGradGradGradGrad
 Berny optimization.
 Initialization pass.
                       ----------------------------
                       !    Initial Parameters    !
                       ! (Angstroms and Degrees)  !
 ----------------------                            ----------------------
 !      Name          Value   Derivative information (Atomic Units)     !
 ------------------------------------------------------------------------
 !       r2          1.3524   calculate D2E/DX2 analytically            !
 !       r3          1.3524   calculate D2E/DX2 analytically            !
 !       a3        107.8      calculate D2E/DX2 analytically            !
 !       r4          1.3524   calculate D2E/DX2 analytically            !
 !       a4        107.8      calculate D2E/DX2 analytically            !
 !       d4        243.88     calculate D2E/DX2 analytically            !
 !       r5          1.7547   calculate D2E/DX2 analytically            !
 !       a5        111.1      calculate D2E/DX2 analytically            !
 !       d5        121.94     calculate D2E/DX2 analytically            !
 ------------------------------------------------------------------------
 Trust Radius=3.00D-01 FncErr=1.00D-07 GrdErr=1.00D-07 EigMax=2.50D+02 EigMin=1.00D-04
 Number of steps in this run=     20 maximum allowed number of steps=    100.
 GradGradGradGradGradGradGradGradGradGradGradGradGradGradGradGradGradGrad

 ---------------------------------------------------------------------------------------------------
                            Z-MATRIX (ANGSTROMS AND DEGREES)
   CD    Cent   Atom    N1       Length/X        N2       Alpha/Y        N3        Beta/Z          J
 ---------------------------------------------------------------------------------------------------
      1      1  C 
      2      2  F        1   1.352400(     1)
      3      3  F        1   1.352400(     2)      2  107.800(     5)
      4      4  F        1   1.352400(     3)      2  107.800(     6)      3  243.880(     8)      0
      5      5  Cl       1   1.754700(     4)      2  111.100(     7)      3  121.940(     9)      0
 ---------------------------------------------------------------------------------------------------
                         Z-Matrix orientation:                         
 ---------------------------------------------------------------------
 Center     Atomic      Atomic             Coordinates (Angstroms)
 Number     Number       Type             X           Y           Z
 ---------------------------------------------------------------------
      1          6           0        0.000000    0.000000    0.000000
      2          9           0        0.000000    0.000000    1.352400
      3          9           0        1.287660    0.000000   -0.413422
      4          9           0       -0.566896    1.156156   -0.413422
      5         17           0       -0.866052   -1.389208   -0.631686
 ---------------------------------------------------------------------
                    Distance matrix (angstroms):
                    1          2          3          4          5
     1  C    0.000000
     2  F    1.352400   0.000000
     3  F    1.352400   2.185451   0.000000
     4  F    1.352400   2.185451   2.185423   0.000000
     5  Cl   1.754700   2.572264   2.572161   2.572161   0.000000
 Stoichiometry    CClF3
 Framework group  CS[SG(CClF),X(F2)]
 Deg. of freedom     6
 Full point group                 CS      NOp   2
 Largest Abelian subgroup         CS      NOp   2
 Largest concise Abelian subgroup CS      NOp   2
                         Standard orientation:                         
 ---------------------------------------------------------------------
 Center     Atomic      Atomic             Coordinates (Angstroms)
 Number     Number       Type             X           Y           Z
 ---------------------------------------------------------------------
      1          6           0        0.333748    0.000054   -0.000000
      2          9           0        0.820507    1.261819   -0.000000
      3          9           0        0.820507   -0.630845    1.092711
      4          9           0        0.820507   -0.630845   -1.092711
      5         17           0       -1.420952   -0.000087    0.000000
 ---------------------------------------------------------------------
 Rotational constants (GHZ):           5.5695702           3.2464552           3.2464226
 Standard basis: CC-pVTZ (5D, 7F)
 There are   110 symmetry adapted cartesian basis functions of A'  symmetry.
 There are    69 symmetry adapted cartesian basis functions of A"  symmetry.
 There are    93 symmetry adapted basis functions of A'  symmetry.
 There are    61 symmetry adapted basis functions of A"  symmetry.
   154 basis functions,   302 primitive gaussians,   179 cartesian basis functions
    25 alpha electrons       25 beta electrons
       nuclear repulsion energy       247.4187998908 Hartrees.
 NAtoms=    5 NActive=    5 NUniq=    4 SFac= 1.56D+00 NAtFMM=   60 NAOKFM=F Big=F
 Integral buffers will be    131072 words long.
 Regular integral format.
 Two-electron integral symmetry is turned on.
 One-electron integrals computed using PRISM.
 NBasis=   154 RedAO= T EigKep=  3.28D-03  NBF=    93    61
 NBsUse=   154 1.00D-06 EigRej= -1.00D+00 NBFU=    93    61
 ExpMin= 1.21D-01 ExpMax= 4.56D+05 ExpMxC= 1.44D+03 IAcc=3 IRadAn=         5 AccDes= 0.00D+00
 Harris functional with IExCor=  419 and IRadAn=       5 diagonalized for initial guess.
 HarFok:  IExCor=  419 AccDes= 0.00D+00 IRadAn=         5 IDoV= 1 UseB2=F ITyADJ=14
 ICtDFT=  3500011 ScaDFX=  1.000000  1.000000  1.000000  1.000000
 FoFCou: FMM=F IPFlag=           0 FMFlag=      100000 FMFlg1=           0
         NFxFlg=           0 DoJE=T BraDBF=F KetDBF=T FulRan=T
         wScrn=  0.000000 ICntrl=       500 IOpCl=  0 I1Cent=   200000004 NGrid=           0
         NMat0=    1 NMatS0=      1 NMatT0=    0 NMatD0=    1 NMtDS0=    0 NMtDT0=    0
 Petite list used in FoFCou.
 Initial guess orbital symmetries:
       Occupied  (A') (A') (A') (A") (A') (A') (A') (A') (A") (A')
                 (A') (A") (A') (A') (A') (A") (A') (A') (A") (A')
                 (A") (A") (A') (A') (A")
       Virtual   (A') (A") (A') (A') (A') (A') (A') (A") (A") (A')
                 (A') (A') (A") (A") (A') (A') (A") (A') (A') (A')
                 (A") (A") (A') (A') (A") (A') (A') (A") (A') (A")
                 (A') (A") (A') (A') (A') (A") (A') (A") (A") (A')
                 (A') (A") (A") (A') (A') (A") (A') (A") (A') (A")
                 (A') (A") (A') (A') (A") (A") (A') (A') (A") (A')
                 (A') (A') (A") (A') (A') (A") (A') (A") (A') (A')
                 (A') (A') (A") (A") (A') (A") (A") (A') (A') (A')
                 (A") (A') (A") (A") (A') (A') (A') (A") (A') (A")
                 (A") (A') (A") (A") (A') (A') (A') (A") (A') (A")
                 (A') (A') (A") (A') (A') (A") (A') (A") (A") (A')
                 (A') (A') (A") (A") (A") (A') (A') (A") (A") (A')
                 (A') (A') (A") (A") (A') (A') (A") (A') (A')
 The electronic state of the initial guess is 1-A'.
 Requested convergence on RMS density matrix=1.00D-08 within 128 cycles.
 Requested convergence on MAX density matrix=1.00D-06.
 Requested convergence on             energy=1.00D-06.
 No special actions if energy rises.
 Integral accuracy reduced to 1.0D-05 until final iterations.
 Initial convergence to 1.0D-05 achieved.  Increase integral accuracy.
 SCF Done:  E(RB2PLYP) =  -797.317967043     A.U. after   11 cycles
            NFock= 11  Conv=0.75D-08     -V/T= 2.0027
 DoSCS=T DFT=T ScalE2(SS,OS)=  0.270000  0.270000
 ExpMin= 1.21D-01 ExpMax= 4.56D+05 ExpMxC= 1.44D+03 IAcc=3 IRadAn=         5 AccDes= 0.00D+00
 HarFok:  IExCor=  205 AccDes= 0.00D+00 IRadAn=         5 IDoV=-2 UseB2=F ITyADJ=14
 ICtDFT= 12500011 ScaDFX=  1.000000  1.000000  1.000000  1.000000
 Range of M.O.s used for correlation:    10   154
 NBasis=   154 NAE=    25 NBE=    25 NFC=     9 NFV=     0
 NROrb=    145 NOA=    16 NOB=    16 NVA=   129 NVB=   129
 DoSCS=T DFT=T ScalE2(SS,OS)=  0.270000  0.270000
 Disk-based method using ON**2 memory for 16 occupieds at a time.
 Permanent disk used for amplitudes=    12877425 words.
 Estimated scratch disk usage=   117885210 words.
 Actual    scratch disk usage=   113976090 words.
 GetIJB would need an additional    27354884 words of memory to use all   4 processors.
 JobTyp=1 Pass  1:  I=  10 to  25 NPSUse=  3 ParTrn=F ParDer=T DoDerP=T.
 Spin components of T(2) and E(2):
     alpha-alpha T2 =       0.5200756062D-01 E2=     -0.4737388264D-01
     alpha-beta  T2 =       0.2657523537D+00 E2=     -0.2584589326D+00
     beta-beta   T2 =       0.5200756062D-01 E2=     -0.4737388264D-01
 E2(B2PLYP) =    -0.3532066979D+00 E(B2PLYP) =    -0.79767117374121D+03
 G2DrvN: will do     6 centers at a time, making    1 passes.
 Calling FoFCou, ICntrl=  3107 FMM=F I1Cent=   0 AccDes= 0.00D+00.
 End of G2Drv F.D. properties file   721 does not exist.
 End of G2Drv F.D. properties file   722 does not exist.
 End of G2Drv F.D. properties file   788 does not exist.
          IDoAtm=11111
          Differentiating once with respect to electric field.
                with respect to dipole field.
          Differentiating once with respect to nuclear coordinates.
 CalDSu exits because no D1Ps are significant.
          There are    18 degrees of freedom in the 1st order CPHF.  IDoFFX=6 NUNeed=    18.
     15 vectors produced by pass  0 Test12= 1.79D-14 5.56D-09 XBig12= 1.28D+01 2.41D+00.
 AX will form    15 AO Fock derivatives at one time.
     15 vectors produced by pass  1 Test12= 1.79D-14 5.56D-09 XBig12= 1.34D+00 2.97D-01.
     15 vectors produced by pass  2 Test12= 1.79D-14 5.56D-09 XBig12= 5.45D-02 6.60D-02.
     15 vectors produced by pass  3 Test12= 1.79D-14 5.56D-09 XBig12= 3.11D-03 1.50D-02.
     15 vectors produced by pass  4 Test12= 1.79D-14 5.56D-09 XBig12= 5.13D-05 1.81D-03.
     15 vectors produced by pass  5 Test12= 1.79D-14 5.56D-09 XBig12= 3.36D-07 1.80D-04.
     15 vectors produced by pass  6 Test12= 1.79D-14 5.56D-09 XBig12= 1.17D-09 9.47D-06.
      6 vectors produced by pass  7 Test12= 1.79D-14 5.56D-09 XBig12= 4.53D-12 4.84D-07.
      3 vectors produced by pass  8 Test12= 1.79D-14 5.56D-09 XBig12= 1.59D-14 2.91D-08.
 InvSVY:  IOpt=1 It=  1 EMax= 8.88D-16
 Solved reduced A of dimension   114 with    15 vectors.
 End of Minotr F.D. properties file   721 does not exist.
 End of Minotr F.D. properties file   722 does not exist.
 End of Minotr F.D. properties file   788 does not exist.
 MDV=   104857600.
 DoSCS=T DFT=T ScalE2(SS,OS)=  0.270000  0.270000
 Form MO integral derivatives with frozen-active canonical formalism.
 Discarding MO integrals.
 Reordered first order wavefunction length =     20801250
 In DefCFB: NBatch=  1 ICI= 25 ICA=129 LFMax= 26
            Large arrays: LIAPS=   355601400 LIARS=   157596075 words.
 Semi-Direct transformation.
 ModeAB=           4 MOrb=            25 LenV=     104082408
 LASXX=     40515675 LTotXX=    40515675 LenRXX=    81836800
 LTotAB=    41321125 MaxLAS=    43943900 LenRXY=           0
 NonZer=   122352475 LenScr=   184286208 LnRSAI=    43943900
 LnScr1=    66682368 LExtra=           0 Total=    376749276
 MaxDsk=          -1 SrtSym=           T ITran=            4
 JobTyp=0 Pass  1:  I=   1 to  25.
 (rs|ai) integrals will be sorted in core.
 DoSCS=T DFT=T ScalE2(SS,OS)=  0.270000  0.270000
 Spin components of T(2) and E(2):
     alpha-alpha T2 =       0.5200756062D-01 E2=     -0.4737388264D-01
     alpha-beta  T2 =       0.2657523537D+00 E2=     -0.2584589326D+00
     beta-beta   T2 =       0.5200756062D-01 E2=     -0.4737388264D-01
 E2(B2PLYP) =    -0.3532066979D+00 E(B2PLYP) =    -0.79767117374121D+03
          IDoAtm=11111
          Differentiating once with respect to electric field.
                with respect to dipole field.
          Differentiating once with respect to nuclear coordinates.
          There are     1 degrees of freedom in the 1st order CPHF.  IDoFFX=0 NUNeed=     1.
 LinEq1:  Iter=  0 NonCon=     1 RMS=1.85D-03 Max=3.38D-02 NDo=     1
 AX will form     1 AO Fock derivatives at one time.
 LinEq1:  Iter=  1 NonCon=     1 RMS=7.57D-04 Max=1.34D-02 NDo=     1
 LinEq1:  Iter=  2 NonCon=     1 RMS=2.29D-04 Max=4.80D-03 NDo=     1
 LinEq1:  Iter=  3 NonCon=     1 RMS=7.73D-05 Max=1.31D-03 NDo=     1
 LinEq1:  Iter=  4 NonCon=     1 RMS=1.20D-05 Max=2.51D-04 NDo=     1
 LinEq1:  Iter=  5 NonCon=     1 RMS=3.00D-06 Max=4.81D-05 NDo=     1
 LinEq1:  Iter=  6 NonCon=     1 RMS=7.64D-07 Max=1.67D-05 NDo=     1
 LinEq1:  Iter=  7 NonCon=     1 RMS=3.09D-07 Max=5.25D-06 NDo=     1
 LinEq1:  Iter=  8 NonCon=     1 RMS=8.51D-08 Max=1.12D-06 NDo=     1
 LinEq1:  Iter=  9 NonCon=     1 RMS=1.73D-08 Max=2.37D-07 NDo=     1
 LinEq1:  Iter= 10 NonCon=     1 RMS=2.89D-09 Max=3.72D-08 NDo=     1
 LinEq1:  Iter= 11 NonCon=     1 RMS=6.57D-10 Max=7.62D-09 NDo=     1
 LinEq1:  Iter= 12 NonCon=     1 RMS=3.62D-10 Max=3.42D-09 NDo=     1
 LinEq1:  Iter= 13 NonCon=     0 RMS=5.68D-11 Max=8.88D-10 NDo=     1
 Linear equations converged to 1.000D-10 1.000D-09 after    13 iterations.
 End of Minotr F.D. properties file   721 does not exist.
 End of Minotr F.D. properties file   722 does not exist.
 End of Minotr F.D. properties file   788 does not exist.
 Symmetrizing basis deriv contribution to polar:
 IMax=3 JMax=2 DiffMx= 0.00D+00
 G2DrvN: will do     6 centers at a time, making    1 passes.
 Calling FoFCou, ICntrl=  3107 FMM=F I1Cent=   0 AccDes= 0.00D+00.
 End of G2Drv F.D. properties file   721 does not exist.
 End of G2Drv F.D. properties file   722 does not exist.
 End of G2Drv F.D. properties file   788 does not exist.
 DoSCS=T DFT=T ScalE2(SS,OS)=  0.270000  0.270000
 Would need an additional   157607146 words for in-memory AO integral storage.
 DD1Dir will call FoFJK  23 times, MxPair=        42
 NAB=   325 NAA=   300 NBB=     0 NumPrc=  4.
 FoFJK:  IHMeth= 1 ICntrl=     200 DoSepK=F KAlg= 0 I1Cent=           0 FoldK=F
 IRaf= 990000000 NMat=      42 IRICut=      52 DoRegI=T DoRafI=T ISym2E=-1 IDoP0=3 IntGTp=3.
 FoFCou: FMM=F IPFlag=           0 FMFlag=           0 FMFlg1=           0
         NFxFlg=           0 DoJE=F BraDBF=F KetDBF=F FulRan=T
         wScrn=  0.000000 ICntrl=       200 IOpCl=  0 I1Cent=           0 NGrid=           0
         NMat0=   42 NMatS0=      0 NMatT0=   21 NMatD0=   42 NMtDS0=    0 NMtDT0=    0
 Petite list used in FoFCou.
 Raff kept on since  62.48% of shell-pairs survive, threshold=   0.20 IRatSp=62.
 Discarding MO integrals.

 **********************************************************************

            Population analysis using the SCF Density.

 **********************************************************************

 Orbital symmetries:
       Occupied  (A') (A') (A") (A') (A') (A') (A') (A') (A") (A')
                 (A') (A") (A') (A') (A') (A") (A') (A') (A") (A')
                 (A") (A") (A') (A') (A")
       Virtual   (A') (A") (A') (A') (A') (A') (A') (A") (A") (A')
                 (A') (A') (A") (A") (A') (A') (A") (A') (A') (A')
                 (A") (A') (A") (A') (A") (A') (A') (A") (A') (A")
                 (A') (A") (A') (A') (A') (A") (A") (A') (A') (A")
                 (A') (A") (A') (A") (A') (A") (A') (A") (A') (A")
                 (A') (A") (A') (A') (A") (A") (A') (A') (A") (A')
                 (A') (A') (A') (A") (A') (A") (A') (A") (A') (A')
                 (A') (A") (A') (A") (A') (A") (A") (A') (A') (A')
                 (A") (A') (A") (A") (A') (A') (A') (A") (A') (A")
                 (A") (A') (A") (A') (A") (A') (A") (A') (A') (A")
                 (A') (A') (A") (A') (A') (A") (A') (A") (A") (A')
                 (A') (A') (A") (A") (A") (A') (A') (A") (A") (A')
                 (A') (A') (A") (A") (A') (A') (A") (A') (A')
 The electronic state is 1-A'.
 Alpha  occ. eigenvalues -- -102.98151 -25.42437 -25.42436 -25.42434 -10.95743
 Alpha  occ. eigenvalues --   -9.97032  -7.61090  -7.60407  -7.60407  -1.51195
 Alpha  occ. eigenvalues --   -1.42260  -1.42260  -1.02551  -0.82406  -0.71748
 Alpha  occ. eigenvalues --   -0.71748  -0.68452  -0.59581  -0.59581  -0.55810
 Alpha  occ. eigenvalues --   -0.55809  -0.53779  -0.50845  -0.42625  -0.42625
 Alpha virt. eigenvalues --    0.05765   0.17742   0.17743   0.22066   0.27518
 Alpha virt. eigenvalues --    0.33747   0.34045   0.34045   0.40623   0.40624
 Alpha virt. eigenvalues --    0.41435   0.48690   0.48690   0.54778   0.54778
 Alpha virt. eigenvalues --    0.66840   0.71665   0.71666   0.80586   0.84349
 Alpha virt. eigenvalues --    0.84349   0.94867   0.94947   0.98306   0.98307
 Alpha virt. eigenvalues --    1.03980   1.04963   1.04965   1.17740   1.17740
 Alpha virt. eigenvalues --    1.20525   1.62221   1.62224   1.78055   1.86958
 Alpha virt. eigenvalues --    1.95901   1.97602   1.97602   2.00836   2.00837
 Alpha virt. eigenvalues --    2.00964   2.00965   2.03073   2.03073   2.05929
 Alpha virt. eigenvalues --    2.10065   2.10068   2.17040   2.18251   2.20323
 Alpha virt. eigenvalues --    2.25192   2.25197   2.32014   2.33779   2.33780
 Alpha virt. eigenvalues --    2.40480   2.40481   2.40581   2.59704   2.59710
 Alpha virt. eigenvalues --    2.62083   2.64386   2.96362   2.96362   3.05652
 Alpha virt. eigenvalues --    3.05653   3.19365   3.19367   3.24405   3.40221
 Alpha virt. eigenvalues --    3.51360   3.56974   3.56974   3.59875   3.64961
 Alpha virt. eigenvalues --    3.64966   3.65630   3.65636   3.87901   4.74945
 Alpha virt. eigenvalues --    4.93491   4.95640   4.95643   4.97670   4.97671
 Alpha virt. eigenvalues --    5.06317   5.46345   6.10421   6.10421   6.98119
 Alpha virt. eigenvalues --    7.01932   7.01932   7.02010   7.02322   7.02322
 Alpha virt. eigenvalues --    7.02389   7.02390   7.02659   7.07569   7.11753
 Alpha virt. eigenvalues --    7.11754   7.14345   7.22798   7.22799   7.38140
 Alpha virt. eigenvalues --    7.46077   7.46078   7.64720   7.66346   7.66346
 Alpha virt. eigenvalues --    8.42301   8.47521   8.47521   8.50623   8.56356
 Alpha virt. eigenvalues --    8.56357   8.61851   8.87834   8.92811   8.92812
 Alpha virt. eigenvalues --    9.02792   9.21204   9.21205   9.25891   9.25891
 Alpha virt. eigenvalues --   10.14294  11.35556  11.35564  11.79058
          Condensed to atoms (all electrons):
               1          2          3          4          5
     1  C    3.829662   0.402849   0.402846   0.402846   0.375886
     2  F    0.402849   8.908041  -0.045720  -0.045720  -0.048961
     3  F    0.402846  -0.045720   8.908071  -0.045725  -0.048976
     4  F    0.402846  -0.045720  -0.045725   8.908071  -0.048976
     5  Cl   0.375886  -0.048961  -0.048976  -0.048976  16.845456
 Mulliken charges:
               1
     1  C    0.585911
     2  F   -0.170489
     3  F   -0.170496
     4  F   -0.170496
     5  Cl  -0.074430
 Sum of Mulliken charges =  -0.00000
 Mulliken charges with hydrogens summed into heavy atoms:
               1
     1  C    0.585911
     2  F   -0.170489
     3  F   -0.170496
     4  F   -0.170496
     5  Cl  -0.074430
 APT charges:
               1
     1  C    1.887220
     2  F   -0.541187
     3  F   -0.541206
     4  F   -0.541206
     5  Cl  -0.263621
 Sum of APT charges =  -0.00000
 APT charges with hydrogens summed into heavy atoms:
               1
     1  C    1.887220
     2  F   -0.541187
     3  F   -0.541206
     4  F   -0.541206
     5  Cl  -0.263621
 Electronic spatial extent (au):  <R**2>=            416.6695
 Charge=             -0.0000 electrons
 Dipole moment (field-independent basis, Debye):
    X=             -0.7546    Y=              0.0001    Z=              0.0000  Tot=              0.7546
 Quadrupole moment (field-independent basis, Debye-Ang):
   XX=            -31.5849   YY=            -33.4971   ZZ=            -33.4971
   XY=              0.0002   XZ=              0.0000   YZ=             -0.0000
 Traceless Quadrupole moment (field-independent basis, Debye-Ang):
   XX=              1.2748   YY=             -0.6374   ZZ=             -0.6374
   XY=              0.0002   XZ=              0.0000   YZ=             -0.0000
 Octapole moment (field-independent basis, Debye-Ang**2):
  XXX=              6.5312  YYY=             -0.9431  ZZZ=              0.0000  XYY=              3.4209
  XXY=             -0.0004  XXZ=             -0.0000  XZZ=              3.4208  YZZ=              0.9438
  YYZ=             -0.0000  XYZ=             -0.0000
 Hexadecapole moment (field-independent basis, Debye-Ang**3):
 XXXX=           -219.0664 YYYY=            -95.7480 ZZZZ=            -95.7458 XXXY=             -0.0042
 XXXZ=              0.0000 YYYX=             -0.3445 YYYZ=             -0.0000 ZZZX=              0.0000
 ZZZY=             -0.0000 XXYY=            -56.6224 XXZZ=            -56.6222 YYZZ=            -31.9155
 XXYZ=             -0.0000 YYXZ=              0.0000 ZZXY=              0.3361
 N-N= 2.474187998908D+02 E-N=-2.391300693827D+03  KE= 7.951444056285D+02
 Symmetry A'   KE= 6.413005084686D+02
 Symmetry A"   KE= 1.538438971598D+02
  Exact polarizability:      32.422       0.001      22.384       0.000      -0.000      22.383
 Approx polarizability:      36.232       0.001      26.813      -0.000       0.000      26.813
 Calling FoFJK, ICntrl=  10100127 FMM=F ISym2X=1 I1Cent= 0 IOpClX= 0 NMat=1 NMatS=1 NMatT=0.
 ***** Axes restored to original set *****
 -------------------------------------------------------------------
 Center     Atomic                   Forces (Hartrees/Bohr)
 Number     Number              X              Y              Z
 -------------------------------------------------------------------
      1        6           0.012777940    0.020496709    0.009302830
      2        9          -0.001215355   -0.001949514   -0.021269971
      3        9          -0.020605776   -0.001941989    0.005352697
      4        9           0.007328085   -0.019356356    0.005352697
      5       17           0.001715106    0.002751150    0.001261747
 -------------------------------------------------------------------
 Cartesian Forces:  Max     0.021269971 RMS     0.011701187
 -----------------------------------------------------------------------------------------------
                       Internal Coordinate Forces (Hartree/Bohr or radian)
  Cent   Atom   N1       Length/X         N2         Alpha/Y        N3         Beta/Z          J
 -----------------------------------------------------------------------------------------------
      1  C 
      2  F        1  -0.021270(     1)
      3  F        1  -0.021256(     2)      2   0.003074(     5)
      4  F        1  -0.021256(     3)      2   0.003074(     6)      3  -0.004725(     8)     0
      5  Cl       1  -0.003479(     4)      2  -0.000033(     7)      3   0.000000(     9)     0
 -----------------------------------------------------------------------------------------------
 Internal  Forces:  Max     0.021269971 RMS     0.012513746

 GradGradGradGradGradGradGradGradGradGradGradGradGradGradGradGradGradGrad
 Berny optimization.
 Search for a local minimum.
 Step number   1 out of a maximum of   20
 All quantities printed in internal units (Hartrees-Bohrs-Radians)
 Second derivative matrix not updated -- analytic derivatives used.
 The second derivative matrix:
                          r2        r3        a3        r4        a4
           r2           0.34793
           r3           0.04900   0.34793
           a3           0.07908   0.01038   0.48184
           r4           0.04900   0.04900  -0.03294   0.34793
           a4           0.07908  -0.03294   0.12788   0.01038   0.48184
           d4          -0.00201  -0.06851   0.07910  -0.01586   0.00832
           r5           0.03498   0.03499  -0.03363   0.03499  -0.03363
           a5           0.06513  -0.03258   0.11854  -0.03258   0.11854
           d5          -0.00000   0.05264  -0.07077  -0.05264   0.07077
                          d4        r5        a5        d5
           d4           0.42673
           r5           0.05136   0.22989
           a5          -0.06215  -0.00002   0.39560
           d5          -0.17212  -0.00000   0.00000   0.34432
 ITU=  0
     Eigenvalues ---    0.13149   0.19095   0.23841   0.29138   0.33448
     Eigenvalues ---    0.37569   0.46098   0.63097   0.74966
 RFO step:  Lambda=-3.57131791D-03 EMin= 1.31488999D-01
 Linear search not attempted -- first point.
 Variable       Old X    -DE/DX   Delta X   Delta X   Delta X     New X
                                 (Linear)    (Quad)   (Total)
    r2        2.55567  -0.02127   0.00000  -0.05280  -0.05280   2.50286
    r3        2.55567  -0.02126   0.00000  -0.05284  -0.05284   2.50282
    a3        1.88146   0.00307   0.00000   0.01685   0.01685   1.89832
    r4        2.55567  -0.02126   0.00000  -0.05275  -0.05275   2.50292
    a4        1.88146   0.00307   0.00000   0.01675   0.01675   1.89821
    d4        4.25651  -0.00473   0.00000  -0.03727  -0.03727   4.21924
    r5        3.31590  -0.00348   0.00000   0.02188   0.02188   3.33778
    a5        1.93906  -0.00003   0.00000  -0.01587  -0.01587   1.92319
    d5        2.12825   0.00000   0.00000  -0.01840  -0.01840   2.10985
         Item               Value     Threshold  Converged?
 Maximum Force            0.021270     0.000002     NO 
 RMS     Force            0.012514     0.000001     NO 
 Maximum Displacement     0.052843     0.000006     NO 
 RMS     Displacement     0.035568     0.000004     NO 
 Predicted change in Energy=-1.805987D-03
 GradGradGradGradGradGradGradGradGradGradGradGradGradGradGradGradGradGrad

 ---------------------------------------------------------------------------------------------------
                            Z-MATRIX (ANGSTROMS AND DEGREES)
   CD    Cent   Atom    N1       Length/X        N2       Alpha/Y        N3        Beta/Z          J
 ---------------------------------------------------------------------------------------------------
      1      1  C 
      2      2  F        1   1.324458(     1)
      3      3  F        1   1.324437(     2)      2  108.766(     5)
      4      4  F        1   1.324488(     3)      2  108.760(     6)      3  241.745(     8)      0
      5      5  Cl       1   1.766276(     4)      2  110.191(     7)      3  120.886(     9)      0
 ---------------------------------------------------------------------------------------------------
                         Z-Matrix orientation:                         
 ---------------------------------------------------------------------
 Center     Atomic      Atomic             Coordinates (Angstroms)
 Number     Number       Type             X           Y           Z
 ---------------------------------------------------------------------
      1          6           0        0.000000    0.000000    0.000000
      2          9           0        0.000000    0.000000    1.324458
      3          9           0        1.254033    0.000000   -0.426069
      4          9           0       -0.593708    1.104691   -0.425954
      5         17           0       -0.850957   -1.422659   -0.609629
 ---------------------------------------------------------------------
                    Distance matrix (angstroms):
                    1          2          3          4          5
     1  C    0.000000
     2  F    1.324458   0.000000
     3  F    1.324437   2.153356   0.000000
     4  F    1.324488   2.153316   2.152786   0.000000
     5  Cl   1.766276   2.547308   2.547280   2.547040   0.000000
 Stoichiometry    CClF3
 Framework group  C1[X(CClF3)]
 Deg. of freedom     9
 Full point group                 C1      NOp   1
 Omega: Change in point group or standard orientation.

 Old FWG=CS   [SG(C1Cl1F1),X(F2)]
 New FWG=C01  [X(C1Cl1F3)]
 Largest Abelian subgroup         C1      NOp   1
 Largest concise Abelian subgroup C1      NOp   1
                         Standard orientation:                         
 ---------------------------------------------------------------------
 Center     Atomic      Atomic             Coordinates (Angstroms)
 Number     Number       Type             X           Y           Z
 ---------------------------------------------------------------------
      1          6           0        0.353759    0.000181    0.000063
      2          9           0        0.810759    1.242706    0.038429
      3          9           0        0.810971   -0.654766    1.056536
      4          9           0        0.810520   -0.588037   -1.095216
      5         17           0       -1.412518   -0.000013    0.000111
 ---------------------------------------------------------------------
 Rotational constants (GHZ):           5.7378655           3.3085644           3.3079137
 Standard basis: CC-pVTZ (5D, 7F)
 There are   179 symmetry adapted cartesian basis functions of A   symmetry.
 There are   154 symmetry adapted basis functions of A   symmetry.
   154 basis functions,   302 primitive gaussians,   179 cartesian basis functions
    25 alpha electrons       25 beta electrons
       nuclear repulsion energy       250.3630089016 Hartrees.
 NAtoms=    5 NActive=    5 NUniq=    5 SFac= 1.00D+00 NAtFMM=   60 NAOKFM=F Big=F
 Integral buffers will be    131072 words long.
 Regular integral format.
 Two-electron integral symmetry is turned on.
 One-electron integrals computed using PRISM.
 NBasis=   154 RedAO= T EigKep=  3.34D-03  NBF=   154
 NBsUse=   154 1.00D-06 EigRej= -1.00D+00 NBFU=   154
 Initial guess from the checkpoint file:  "checkpoint.chk"
 B after Tr=     0.000000   -0.000000   -0.000000
         Rot=    0.999880   -0.015495   -0.000060    0.000022 Ang=  -1.78 deg.
 ExpMin= 1.21D-01 ExpMax= 4.56D+05 ExpMxC= 1.44D+03 IAcc=3 IRadAn=         5 AccDes= 0.00D+00
 Harris functional with IExCor=  419 and IRadAn=       5 diagonalized for initial guess.
 HarFok:  IExCor=  419 AccDes= 0.00D+00 IRadAn=         5 IDoV= 1 UseB2=F ITyADJ=14
 ICtDFT=  3500011 ScaDFX=  1.000000  1.000000  1.000000  1.000000
 FoFCou: FMM=F IPFlag=           0 FMFlag=      100000 FMFlg1=           0
         NFxFlg=           0 DoJE=T BraDBF=F KetDBF=T FulRan=T
         wScrn=  0.000000 ICntrl=       500 IOpCl=  0 I1Cent=   200000004 NGrid=           0
         NMat0=    1 NMatS0=      1 NMatT0=    0 NMatD0=    1 NMtDS0=    0 NMtDT0=    0
 Petite list used in FoFCou.
 Keep R1 ints in memory in canonical form, NReq=75250644.
 Requested convergence on RMS density matrix=1.00D-08 within 128 cycles.
 Requested convergence on MAX density matrix=1.00D-06.
 Requested convergence on             energy=1.00D-06.
 No special actions if energy rises.
 Integral accuracy reduced to 1.0D-05 until final iterations.
 Initial convergence to 1.0D-05 achieved.  Increase integral accuracy.
 SCF Done:  E(RB2PLYP) =  -797.321710364     A.U. after   10 cycles
            NFock= 10  Conv=0.46D-08     -V/T= 2.0025
 DoSCS=T DFT=T ScalE2(SS,OS)=  0.270000  0.270000
 ExpMin= 1.21D-01 ExpMax= 4.56D+05 ExpMxC= 1.44D+03 IAcc=3 IRadAn=         5 AccDes= 0.00D+00
 HarFok:  IExCor=  205 AccDes= 0.00D+00 IRadAn=         5 IDoV=-2 UseB2=F ITyADJ=14
 ICtDFT= 12500011 ScaDFX=  1.000000  1.000000  1.000000  1.000000
 Range of M.O.s used for correlation:    10   154
 NBasis=   154 NAE=    25 NBE=    25 NFC=     9 NFV=     0
 NROrb=    145 NOA=    16 NOB=    16 NVA=   129 NVB=   129
 DoSCS=T DFT=T ScalE2(SS,OS)=  0.270000  0.270000
 Disk-based method using ON**2 memory for 16 occupieds at a time.
 Permanent disk used for amplitudes=    12877425 words.
 Estimated scratch disk usage=   169067448 words.
 Actual    scratch disk usage=   163616184 words.
 GetIJB would need an additional    27355435 words of memory to use all   4 processors.
 JobTyp=1 Pass  1:  I=  10 to  25 NPSUse=  3 ParTrn=F ParDer=T DoDerP=T.
 Spin components of T(2) and E(2):
     alpha-alpha T2 =       0.5103057424D-01 E2=     -0.4715372045D-01
     alpha-beta  T2 =       0.2602263564D+00 E2=     -0.2568553672D+00
     beta-beta   T2 =       0.5103057424D-01 E2=     -0.4715372045D-01
 E2(B2PLYP) =    -0.3511628082D+00 E(B2PLYP) =    -0.79767287317214D+03
 G2DrvN: will do     6 centers at a time, making    1 passes.
 Calling FoFCou, ICntrl=  3107 FMM=F I1Cent=   0 AccDes= 0.00D+00.
 End of G2Drv F.D. properties file   721 does not exist.
 End of G2Drv F.D. properties file   722 does not exist.
 End of G2Drv F.D. properties file   788 does not exist.
          IDoAtm=11111
          Differentiating once with respect to electric field.
                with respect to dipole field.
          Differentiating once with respect to nuclear coordinates.
 Keep R1 ints in memory in canonical form, NReq=75241612.
          There are    18 degrees of freedom in the 1st order CPHF.  IDoFFX=6 NUNeed=    18.
     15 vectors produced by pass  0 Test12= 1.79D-14 5.56D-09 XBig12= 1.27D+01 2.48D+00.
 AX will form    15 AO Fock derivatives at one time.
     15 vectors produced by pass  1 Test12= 1.79D-14 5.56D-09 XBig12= 1.33D+00 2.83D-01.
     15 vectors produced by pass  2 Test12= 1.79D-14 5.56D-09 XBig12= 5.49D-02 6.73D-02.
     15 vectors produced by pass  3 Test12= 1.79D-14 5.56D-09 XBig12= 3.01D-03 1.29D-02.
     15 vectors produced by pass  4 Test12= 1.79D-14 5.56D-09 XBig12= 4.61D-05 2.02D-03.
     15 vectors produced by pass  5 Test12= 1.79D-14 5.56D-09 XBig12= 2.88D-07 1.60D-04.
     15 vectors produced by pass  6 Test12= 1.79D-14 5.56D-09 XBig12= 9.11D-10 7.42D-06.
      6 vectors produced by pass  7 Test12= 1.79D-14 5.56D-09 XBig12= 3.27D-12 3.78D-07.
      3 vectors produced by pass  8 Test12= 1.79D-14 5.56D-09 XBig12= 1.24D-14 2.46D-08.
 InvSVY:  IOpt=1 It=  1 EMax= 8.88D-16
 Solved reduced A of dimension   114 with    15 vectors.
 End of Minotr F.D. properties file   721 does not exist.
 End of Minotr F.D. properties file   722 does not exist.
 End of Minotr F.D. properties file   788 does not exist.
 MDV=   104857600.
 DoSCS=T DFT=T ScalE2(SS,OS)=  0.270000  0.270000
 Form MO integral derivatives with frozen-active canonical formalism.
 Discarding MO integrals.
 Reordered first order wavefunction length =     20801250
 In DefCFB: NBatch=  1 ICI= 25 ICA=129 LFMax= 26
            Large arrays: LIAPS=   355601400 LIARS=   157596075 words.
 Semi-Direct transformation.
 ModeAB=           2 MOrb=            25 LenV=     104073983
 LASXX=     40515675 LTotXX=    40515675 LenRXX=    40515675
 LTotAB=    41321125 MaxLAS=    62023500 LenRXY=    62023500
 NonZer=    81031350 LenScr=   122314752 LnRSAI=           0
 LnScr1=           0 LExtra=           0 Total=    224853927
 MaxDsk=          -1 SrtSym=           F ITran=            4
 JobTyp=0 Pass  1:  I=   1 to  25.
 (rs|ai) integrals will be sorted in core.
 SymMOI:  orbitals are not symmetric.
 DoSCS=T DFT=T ScalE2(SS,OS)=  0.270000  0.270000
 Spin components of T(2) and E(2):
     alpha-alpha T2 =       0.5103057424D-01 E2=     -0.4715372045D-01
     alpha-beta  T2 =       0.2602263564D+00 E2=     -0.2568553672D+00
     beta-beta   T2 =       0.5103057424D-01 E2=     -0.4715372045D-01
 E2(B2PLYP) =    -0.3511628082D+00 E(B2PLYP) =    -0.79767287317214D+03
          IDoAtm=11111
          Differentiating once with respect to electric field.
                with respect to dipole field.
          Differentiating once with respect to nuclear coordinates.
 Keep R1 ints in memory in canonical form, NReq=75254165.
          There are     1 degrees of freedom in the 1st order CPHF.  IDoFFX=0 NUNeed=     1.
 LinEq1:  Iter=  0 NonCon=     1 RMS=1.78D-03 Max=3.19D-02 NDo=     1
 AX will form     1 AO Fock derivatives at one time.
 LinEq1:  Iter=  1 NonCon=     1 RMS=6.97D-04 Max=1.34D-02 NDo=     1
 LinEq1:  Iter=  2 NonCon=     1 RMS=2.08D-04 Max=3.61D-03 NDo=     1
 LinEq1:  Iter=  3 NonCon=     1 RMS=7.09D-05 Max=1.22D-03 NDo=     1
 LinEq1:  Iter=  4 NonCon=     1 RMS=1.07D-05 Max=2.36D-04 NDo=     1
 LinEq1:  Iter=  5 NonCon=     1 RMS=2.94D-06 Max=5.65D-05 NDo=     1
 LinEq1:  Iter=  6 NonCon=     1 RMS=5.85D-07 Max=6.52D-06 NDo=     1
 LinEq1:  Iter=  7 NonCon=     1 RMS=1.86D-07 Max=4.37D-06 NDo=     1
 LinEq1:  Iter=  8 NonCon=     1 RMS=8.17D-08 Max=1.11D-06 NDo=     1
 LinEq1:  Iter=  9 NonCon=     1 RMS=1.73D-08 Max=2.78D-07 NDo=     1
 LinEq1:  Iter= 10 NonCon=     1 RMS=3.28D-09 Max=3.84D-08 NDo=     1
 LinEq1:  Iter= 11 NonCon=     1 RMS=1.48D-09 Max=1.60D-08 NDo=     1
 LinEq1:  Iter= 12 NonCon=     1 RMS=4.05D-10 Max=4.56D-09 NDo=     1
 LinEq1:  Iter= 13 NonCon=     0 RMS=5.04D-11 Max=6.43D-10 NDo=     1
 Linear equations converged to 1.000D-10 1.000D-09 after    13 iterations.
 End of Minotr F.D. properties file   721 does not exist.
 End of Minotr F.D. properties file   722 does not exist.
 End of Minotr F.D. properties file   788 does not exist.
 Symmetrizing basis deriv contribution to polar:
 IMax=3 JMax=2 DiffMx= 0.00D+00
 G2DrvN: will do     6 centers at a time, making    1 passes.
 Calling FoFCou, ICntrl=  3107 FMM=F I1Cent=   0 AccDes= 0.00D+00.
 End of G2Drv F.D. properties file   721 does not exist.
 End of G2Drv F.D. properties file   722 does not exist.
 End of G2Drv F.D. properties file   788 does not exist.
 DoSCS=T DFT=T ScalE2(SS,OS)=  0.270000  0.270000
 Would need an additional   157607146 words for in-memory AO integral storage.
 DD1Dir will call FoFJK  23 times, MxPair=        42
 NAB=   325 NAA=   300 NBB=     0 NumPrc=  4.
 FoFJK:  IHMeth= 1 ICntrl=     200 DoSepK=F KAlg= 0 I1Cent=           0 FoldK=F
 IRaf= 990000000 NMat=      42 IRICut=      52 DoRegI=T DoRafI=T ISym2E= 2 IDoP0=3 IntGTp=3.
 FoFCou: FMM=F IPFlag=           0 FMFlag=           0 FMFlg1=           0
         NFxFlg=           0 DoJE=F BraDBF=F KetDBF=F FulRan=T
         wScrn=  0.000000 ICntrl=       200 IOpCl=  0 I1Cent=           0 NGrid=           0
         NMat0=   42 NMatS0=      0 NMatT0=   21 NMatD0=   42 NMtDS0=    0 NMtDT0=    0
 Integrals replicated using symmetry in FoFCou.
 Raff kept on since  62.48% of shell-pairs survive, threshold=   0.20 IRatSp=62.
 Discarding MO integrals.
 Calling FoFJK, ICntrl=  10100127 FMM=F ISym2X=0 I1Cent= 0 IOpClX= 0 NMat=1 NMatS=1 NMatT=0.
 ***** Axes restored to original set *****
 -------------------------------------------------------------------
 Center     Atomic                   Forces (Hartrees/Bohr)
 Number     Number              X              Y              Z
 -------------------------------------------------------------------
      1        6          -0.000632322   -0.000947648   -0.000534461
      2        9          -0.000030357   -0.000079435    0.001876121
      3        9           0.001854712   -0.000147732   -0.000602215
      4        9          -0.000979618    0.001575361   -0.000601131
      5       17          -0.000212415   -0.000400547   -0.000138315
 -------------------------------------------------------------------
 Cartesian Forces:  Max     0.001876121 RMS     0.000929605
 -----------------------------------------------------------------------------------------------
                       Internal Coordinate Forces (Hartree/Bohr or radian)
  Cent   Atom   N1       Length/X         N2         Alpha/Y        N3         Beta/Z          J
 -----------------------------------------------------------------------------------------------
      1  C 
      2  F        1   0.001876(     1)
      3  F        1   0.001950(     2)      2  -0.000066(     5)
      4  F        1   0.001946(     3)      2  -0.000066(     6)      3  -0.000278(     8)     0
      5  Cl       1   0.000473(     4)      2  -0.000088(     7)      3  -0.000073(     9)     0
 -----------------------------------------------------------------------------------------------
 Internal  Forces:  Max     0.001949851 RMS     0.001127062

 GradGradGradGradGradGradGradGradGradGradGradGradGradGradGradGradGradGrad
 Berny optimization.
 Search for a local minimum.
 Step number   2 out of a maximum of   20
 All quantities printed in internal units (Hartrees-Bohrs-Radians)
 Second derivative matrix not updated -- analytic derivatives used.
 DE= -1.70D-03 DEPred=-1.81D-03 R= 9.41D-01
 TightC=F SS=  1.41D+00  RLast= 1.07D-01 DXNew= 5.0454D-01 3.2011D-01
 Trust test= 9.41D-01 RLast= 1.07D-01 DXMaxT set to 3.20D-01
 The second derivative matrix:
                          r2        r3        a3        r4        a4
           r2           0.42210
           r3           0.05432   0.42219
           a3           0.08577   0.01016   0.51210
           r4           0.05432   0.05441  -0.03830   0.42210
           a4           0.08581  -0.03830   0.14045   0.01016   0.51223
           d4          -0.00263  -0.07296   0.08709  -0.01643   0.01431
           r5           0.03779   0.03780  -0.03602   0.03782  -0.03604
           a5           0.06949  -0.03477   0.12376  -0.03478   0.12381
           d5           0.00000   0.05647  -0.07274  -0.05652   0.07280
                          d4        r5        a5        d5
           d4           0.44506
           r5           0.05710   0.22704
           a5          -0.06873  -0.00006   0.41866
           d5          -0.18439  -0.00006   0.00002   0.36869
 ITU=  1  0
     Eigenvalues ---    0.13337   0.20870   0.27066   0.33437   0.36926
     Eigenvalues ---    0.41773   0.54016   0.67090   0.80502
 RFO step:  Lambda=-2.96408039D-06 EMin= 1.33370282D-01
 Quintic linear search produced a step of -0.06796.
 Variable       Old X    -DE/DX   Delta X   Delta X   Delta X     New X
                                 (Linear)    (Quad)   (Total)
    r2        2.50286   0.00188   0.00359   0.00013   0.00372   2.50658
    r3        2.50282   0.00195   0.00359   0.00016   0.00375   2.50658
    a3        1.89832  -0.00007  -0.00115   0.00074  -0.00040   1.89792
    r4        2.50292   0.00195   0.00358   0.00003   0.00362   2.50654
    a4        1.89821  -0.00007  -0.00114   0.00089  -0.00025   1.89796
    d4        4.21924  -0.00028   0.00253  -0.00275  -0.00022   4.21902
    r5        3.33778   0.00047  -0.00149   0.00198   0.00049   3.33827
    a5        1.92319  -0.00009   0.00108  -0.00121  -0.00013   1.92306
    d5        2.10985  -0.00007   0.00125  -0.00170  -0.00045   2.10940
         Item               Value     Threshold  Converged?
 Maximum Force            0.001950     0.000002     NO 
 RMS     Force            0.001127     0.000001     NO 
 Maximum Displacement     0.003754     0.000006     NO 
 RMS     Displacement     0.002154     0.000004     NO 
 Predicted change in Energy=-1.054789D-05
 GradGradGradGradGradGradGradGradGradGradGradGradGradGradGradGradGradGrad

 ---------------------------------------------------------------------------------------------------
                            Z-MATRIX (ANGSTROMS AND DEGREES)
   CD    Cent   Atom    N1       Length/X        N2       Alpha/Y        N3        Beta/Z          J
 ---------------------------------------------------------------------------------------------------
      1      1  C 
      2      2  F        1   1.326425(     1)
      3      3  F        1   1.326423(     2)      2  108.743(     5)
      4      4  F        1   1.326403(     3)      2  108.745(     6)      3  241.732(     8)      0
      5      5  Cl       1   1.766536(     4)      2  110.183(     7)      3  120.860(     9)      0
 ---------------------------------------------------------------------------------------------------
                         Z-Matrix orientation:                         
 ---------------------------------------------------------------------
 Center     Atomic      Atomic             Coordinates (Angstroms)
 Number     Number       Type             X           Y           Z
 ---------------------------------------------------------------------
      1          6           0        0.000000    0.000000    0.000000
      2          9           0        0.000000    0.000000    1.326425
      3          9           0        1.256086    0.000000   -0.426201
      4          9           0       -0.594862    1.106251   -0.426255
      5         17           0       -0.850478   -1.423325   -0.609495
 ---------------------------------------------------------------------
                    Distance matrix (angstroms):
                    1          2          3          4          5
     1  C    0.000000
     2  F    1.326425   0.000000
     3  F    1.326423   2.156259   0.000000
     4  F    1.326403   2.156279   2.156339   0.000000
     5  Cl   1.766536   2.548913   2.548933   2.549053   0.000000
 Stoichiometry    CClF3
 Framework group  C1[X(CClF3)]
 Deg. of freedom     9
 Full point group                 C1      NOp   1
 Largest Abelian subgroup         C1      NOp   1
 Largest concise Abelian subgroup C1      NOp   1
                         Standard orientation:                         
 ---------------------------------------------------------------------
 Center     Atomic      Atomic             Coordinates (Angstroms)
 Number     Number       Type             X           Y           Z
 ---------------------------------------------------------------------
      1          6           0        0.353448   -0.000031    0.000033
      2          9           0        0.811097    0.156769   -1.235028
      3          9           0        0.811107    0.991274    0.753200
      4          9           0        0.811331   -1.147911    0.481757
      5         17           0       -1.413088   -0.000059    0.000026
 ---------------------------------------------------------------------
 Rotational constants (GHZ):           5.7211701           3.3034830           3.3033984
 Standard basis: CC-pVTZ (5D, 7F)
 There are   179 symmetry adapted cartesian basis functions of A   symmetry.
 There are   154 symmetry adapted basis functions of A   symmetry.
   154 basis functions,   302 primitive gaussians,   179 cartesian basis functions
    25 alpha electrons       25 beta electrons
       nuclear repulsion energy       250.1103591241 Hartrees.
 NAtoms=    5 NActive=    5 NUniq=    5 SFac= 1.00D+00 NAtFMM=   60 NAOKFM=F Big=F
 Integral buffers will be    131072 words long.
 Regular integral format.
 Two-electron integral symmetry is turned on.
 One-electron integrals computed using PRISM.
 NBasis=   154 RedAO= T EigKep=  3.35D-03  NBF=   154
 NBsUse=   154 1.00D-06 EigRej= -1.00D+00 NBFU=   154
 Initial guess from the checkpoint file:  "checkpoint.chk"
 B after Tr=    -0.000000   -0.000000    0.000000
         Rot=    0.739962    0.672649    0.000054   -0.000074 Ang=  84.54 deg.
 Keep R1 ints in memory in canonical form, NReq=75250644.
 Requested convergence on RMS density matrix=1.00D-08 within 128 cycles.
 Requested convergence on MAX density matrix=1.00D-06.
 Requested convergence on             energy=1.00D-06.
 No special actions if energy rises.
 SCF Done:  E(RB2PLYP) =  -797.321563667     A.U. after    7 cycles
            NFock=  7  Conv=0.73D-08     -V/T= 2.0025
 DoSCS=T DFT=T ScalE2(SS,OS)=  0.270000  0.270000
 ExpMin= 1.21D-01 ExpMax= 4.56D+05 ExpMxC= 1.44D+03 IAcc=3 IRadAn=         5 AccDes= 0.00D+00
 HarFok:  IExCor=  205 AccDes= 0.00D+00 IRadAn=         5 IDoV=-2 UseB2=F ITyADJ=14
 ICtDFT= 12500011 ScaDFX=  1.000000  1.000000  1.000000  1.000000
 Range of M.O.s used for correlation:    10   154
 NBasis=   154 NAE=    25 NBE=    25 NFC=     9 NFV=     0
 NROrb=    145 NOA=    16 NOB=    16 NVA=   129 NVB=   129
 DoSCS=T DFT=T ScalE2(SS,OS)=  0.270000  0.270000
 Disk-based method using ON**2 memory for 16 occupieds at a time.
 Permanent disk used for amplitudes=    12877425 words.
 Estimated scratch disk usage=   169067448 words.
 Actual    scratch disk usage=   163616184 words.
 GetIJB would need an additional    27355435 words of memory to use all   4 processors.
 JobTyp=1 Pass  1:  I=  10 to  25 NPSUse=  3 ParTrn=F ParDer=T DoDerP=T.
 Spin components of T(2) and E(2):
     alpha-alpha T2 =       0.5110630666D-01 E2=     -0.4717023731D-01
     alpha-beta  T2 =       0.2606673284D+00 E2=     -0.2569796949D+00
     beta-beta   T2 =       0.5110630666D-01 E2=     -0.4717023731D-01
 E2(B2PLYP) =    -0.3513201696D+00 E(B2PLYP) =    -0.79767288383647D+03
 G2DrvN: will do     6 centers at a time, making    1 passes.
 Calling FoFCou, ICntrl=  3107 FMM=F I1Cent=   0 AccDes= 0.00D+00.
 End of G2Drv F.D. properties file   721 does not exist.
 End of G2Drv F.D. properties file   722 does not exist.
 End of G2Drv F.D. properties file   788 does not exist.
          IDoAtm=11111
          Differentiating once with respect to electric field.
                with respect to dipole field.
          Differentiating once with respect to nuclear coordinates.
 Keep R1 ints in memory in canonical form, NReq=75241612.
          There are    18 degrees of freedom in the 1st order CPHF.  IDoFFX=6 NUNeed=    18.
     15 vectors produced by pass  0 Test12= 1.79D-14 5.56D-09 XBig12= 1.27D+01 2.48D+00.
 AX will form    15 AO Fock derivatives at one time.
     15 vectors produced by pass  1 Test12= 1.79D-14 5.56D-09 XBig12= 1.34D+00 2.84D-01.
     15 vectors produced by pass  2 Test12= 1.79D-14 5.56D-09 XBig12= 5.51D-02 6.75D-02.
     15 vectors produced by pass  3 Test12= 1.79D-14 5.56D-09 XBig12= 3.03D-03 1.50D-02.
     15 vectors produced by pass  4 Test12= 1.79D-14 5.56D-09 XBig12= 4.67D-05 2.02D-03.
     15 vectors produced by pass  5 Test12= 1.79D-14 5.56D-09 XBig12= 2.92D-07 1.63D-04.
     15 vectors produced by pass  6 Test12= 1.79D-14 5.56D-09 XBig12= 9.28D-10 7.55D-06.
      6 vectors produced by pass  7 Test12= 1.79D-14 5.56D-09 XBig12= 3.35D-12 3.87D-07.
      3 vectors produced by pass  8 Test12= 1.79D-14 5.56D-09 XBig12= 1.26D-14 2.47D-08.
 InvSVY:  IOpt=1 It=  1 EMax= 8.88D-16
 Solved reduced A of dimension   114 with    15 vectors.
 End of Minotr F.D. properties file   721 does not exist.
 End of Minotr F.D. properties file   722 does not exist.
 End of Minotr F.D. properties file   788 does not exist.
 MDV=   104857600.
 DoSCS=T DFT=T ScalE2(SS,OS)=  0.270000  0.270000
 Form MO integral derivatives with frozen-active canonical formalism.
 Discarding MO integrals.
 Reordered first order wavefunction length =     20801250
 In DefCFB: NBatch=  1 ICI= 25 ICA=129 LFMax= 26
            Large arrays: LIAPS=   355601400 LIARS=   157596075 words.
 Semi-Direct transformation.
 ModeAB=           2 MOrb=            25 LenV=     104074053
 LASXX=     40515675 LTotXX=    40515675 LenRXX=    40515675
 LTotAB=    41321125 MaxLAS=    62023500 LenRXY=    62023500
 NonZer=    81031350 LenScr=   122314752 LnRSAI=           0
 LnScr1=           0 LExtra=           0 Total=    224853927
 MaxDsk=          -1 SrtSym=           F ITran=            4
 JobTyp=0 Pass  1:  I=   1 to  25.
 (rs|ai) integrals will be sorted in core.
 SymMOI:  orbitals are not symmetric.
 DoSCS=T DFT=T ScalE2(SS,OS)=  0.270000  0.270000
 Spin components of T(2) and E(2):
     alpha-alpha T2 =       0.5110630666D-01 E2=     -0.4717023731D-01
     alpha-beta  T2 =       0.2606673284D+00 E2=     -0.2569796949D+00
     beta-beta   T2 =       0.5110630666D-01 E2=     -0.4717023731D-01
 E2(B2PLYP) =    -0.3513201696D+00 E(B2PLYP) =    -0.79767288383647D+03
          IDoAtm=11111
          Differentiating once with respect to electric field.
                with respect to dipole field.
          Differentiating once with respect to nuclear coordinates.
 Keep R1 ints in memory in canonical form, NReq=75254165.
          There are     1 degrees of freedom in the 1st order CPHF.  IDoFFX=0 NUNeed=     1.
 LinEq1:  Iter=  0 NonCon=     1 RMS=1.78D-03 Max=3.20D-02 NDo=     1
 AX will form     1 AO Fock derivatives at one time.
 LinEq1:  Iter=  1 NonCon=     1 RMS=7.01D-04 Max=1.35D-02 NDo=     1
 LinEq1:  Iter=  2 NonCon=     1 RMS=2.09D-04 Max=4.22D-03 NDo=     1
 LinEq1:  Iter=  3 NonCon=     1 RMS=7.14D-05 Max=1.23D-03 NDo=     1
 LinEq1:  Iter=  4 NonCon=     1 RMS=1.07D-05 Max=2.37D-04 NDo=     1
 LinEq1:  Iter=  5 NonCon=     1 RMS=2.94D-06 Max=5.51D-05 NDo=     1
 LinEq1:  Iter=  6 NonCon=     1 RMS=5.76D-07 Max=6.56D-06 NDo=     1
 LinEq1:  Iter=  7 NonCon=     1 RMS=1.74D-07 Max=4.02D-06 NDo=     1
 LinEq1:  Iter=  8 NonCon=     1 RMS=7.93D-08 Max=1.20D-06 NDo=     1
 LinEq1:  Iter=  9 NonCon=     1 RMS=1.73D-08 Max=2.88D-07 NDo=     1
 LinEq1:  Iter= 10 NonCon=     1 RMS=2.79D-09 Max=3.85D-08 NDo=     1
 LinEq1:  Iter= 11 NonCon=     1 RMS=4.57D-10 Max=4.31D-09 NDo=     1
 LinEq1:  Iter= 12 NonCon=     1 RMS=2.33D-10 Max=2.58D-09 NDo=     1
 LinEq1:  Iter= 13 NonCon=     0 RMS=5.01D-11 Max=6.29D-10 NDo=     1
 Linear equations converged to 1.000D-10 1.000D-09 after    13 iterations.
 End of Minotr F.D. properties file   721 does not exist.
 End of Minotr F.D. properties file   722 does not exist.
 End of Minotr F.D. properties file   788 does not exist.
 Symmetrizing basis deriv contribution to polar:
 IMax=3 JMax=2 DiffMx= 0.00D+00
 G2DrvN: will do     6 centers at a time, making    1 passes.
 Calling FoFCou, ICntrl=  3107 FMM=F I1Cent=   0 AccDes= 0.00D+00.
 End of G2Drv F.D. properties file   721 does not exist.
 End of G2Drv F.D. properties file   722 does not exist.
 End of G2Drv F.D. properties file   788 does not exist.
 DoSCS=T DFT=T ScalE2(SS,OS)=  0.270000  0.270000
 Would need an additional   157607146 words for in-memory AO integral storage.
 DD1Dir will call FoFJK  23 times, MxPair=        42
 NAB=   325 NAA=   300 NBB=     0 NumPrc=  4.
 FoFJK:  IHMeth= 1 ICntrl=     200 DoSepK=F KAlg= 0 I1Cent=           0 FoldK=F
 IRaf= 990000000 NMat=      42 IRICut=      52 DoRegI=T DoRafI=T ISym2E= 2 IDoP0=3 IntGTp=3.
 FoFCou: FMM=F IPFlag=           0 FMFlag=           0 FMFlg1=           0
         NFxFlg=           0 DoJE=F BraDBF=F KetDBF=F FulRan=T
         wScrn=  0.000000 ICntrl=       200 IOpCl=  0 I1Cent=           0 NGrid=           0
         NMat0=   42 NMatS0=      0 NMatT0=   21 NMatD0=   42 NMtDS0=    0 NMtDT0=    0
 Integrals replicated using symmetry in FoFCou.
 Raff kept on since  62.48% of shell-pairs survive, threshold=   0.20 IRatSp=62.
 Discarding MO integrals.
 Calling FoFJK, ICntrl=  10100127 FMM=F ISym2X=0 I1Cent= 0 IOpClX= 0 NMat=1 NMatS=1 NMatT=0.
 ***** Axes restored to original set *****
 -------------------------------------------------------------------
 Center     Atomic                   Forces (Hartrees/Bohr)
 Number     Number              X              Y              Z
 -------------------------------------------------------------------
      1        6          -0.000051938   -0.000135342   -0.000024739
      2        9           0.000016350    0.000042084   -0.000031393
      3        9          -0.000036384    0.000047787    0.000019249
      4        9           0.000046842   -0.000017655    0.000022444
      5       17           0.000025131    0.000063126    0.000014440
 -------------------------------------------------------------------
 Cartesian Forces:  Max     0.000135342 RMS     0.000049304
 -----------------------------------------------------------------------------------------------
                       Internal Coordinate Forces (Hartree/Bohr or radian)
  Cent   Atom   N1       Length/X         N2         Alpha/Y        N3         Beta/Z          J
 -----------------------------------------------------------------------------------------------
      1  C 
      2  F        1  -0.000031(     1)
      3  F        1  -0.000041(     2)      2  -0.000016(     5)
      4  F        1  -0.000043(     3)      2  -0.000023(     6)      3   0.000078(     8)     0
      5  Cl       1  -0.000068(     4)      2   0.000032(     7)      3   0.000034(     9)     0
 -----------------------------------------------------------------------------------------------
 Internal  Forces:  Max     0.000078076 RMS     0.000044916

 GradGradGradGradGradGradGradGradGradGradGradGradGradGradGradGradGradGrad
 Berny optimization.
 Search for a local minimum.
 Step number   3 out of a maximum of   20
 All quantities printed in internal units (Hartrees-Bohrs-Radians)
 Second derivative matrix not updated -- analytic derivatives used.
 DE= -1.07D-05 DEPred=-1.05D-05 R= 1.01D+00
 TightC=F SS=  1.41D+00  RLast= 6.46D-03 DXNew= 5.3835D-01 1.9385D-02
 Trust test= 1.01D+00 RLast= 6.46D-03 DXMaxT set to 3.20D-01
 The second derivative matrix:
                          r2        r3        a3        r4        a4
           r2           0.41628
           r3           0.05382   0.41626
           a3           0.08505   0.01005   0.50916
           r4           0.05381   0.05380  -0.03783   0.41631
           a4           0.08506  -0.03783   0.13929   0.01001   0.50916
           d4          -0.00261  -0.07215   0.08634  -0.01586   0.01382
           r5           0.03761   0.03761  -0.03581   0.03760  -0.03580
           a5           0.06927  -0.03463   0.12339  -0.03462   0.12338
           d5           0.00000   0.05631  -0.07250  -0.05628   0.07249
                          d4        r5        a5        d5
           d4           0.44245
           r5           0.05672   0.22622
           a5          -0.06841   0.00003   0.41731
           d5          -0.18371   0.00002  -0.00003   0.36757
 ITU=  1  1  0
     Eigenvalues ---    0.13277   0.20737   0.26847   0.33038   0.36697
     Eigenvalues ---    0.41358   0.53376   0.66741   0.79999
 RFO step:  Lambda=-7.65239433D-08 EMin= 1.32774508D-01
 Quintic linear search produced a step of -0.02184.
 Variable       Old X    -DE/DX   Delta X   Delta X   Delta X     New X
                                 (Linear)    (Quad)   (Total)
    r2        2.50658  -0.00003  -0.00008   0.00006  -0.00002   2.50656
    r3        2.50658  -0.00004  -0.00008   0.00006  -0.00002   2.50656
    a3        1.89792  -0.00002   0.00001  -0.00010  -0.00010   1.89782
    r4        2.50654  -0.00004  -0.00008   0.00009   0.00002   2.50655
    a4        1.89796  -0.00002   0.00001  -0.00017  -0.00016   1.89780
    d4        4.21902   0.00008   0.00000   0.00042   0.00042   4.21944
    r5        3.33827  -0.00007  -0.00001  -0.00043  -0.00044   3.33783
    a5        1.92306   0.00003   0.00000   0.00022   0.00022   1.92328
    d5        2.10940   0.00003   0.00001   0.00031   0.00032   2.10972
         Item               Value     Threshold  Converged?
 Maximum Force            0.000078     0.000002     NO 
 RMS     Force            0.000045     0.000001     NO 
 Maximum Displacement     0.000443     0.000006     NO 
 RMS     Displacement     0.000250     0.000004     NO 
 Predicted change in Energy=-4.352376D-08
 GradGradGradGradGradGradGradGradGradGradGradGradGradGradGradGradGradGrad

 ---------------------------------------------------------------------------------------------------
                            Z-MATRIX (ANGSTROMS AND DEGREES)
   CD    Cent   Atom    N1       Length/X        N2       Alpha/Y        N3        Beta/Z          J
 ---------------------------------------------------------------------------------------------------
      1      1  C 
      2      2  F        1   1.326416(     1)
      3      3  F        1   1.326412(     2)      2  108.737(     5)
      4      4  F        1   1.326411(     3)      2  108.736(     6)      3  241.756(     8)      0
      5      5  Cl       1   1.766302(     4)      2  110.196(     7)      3  120.878(     9)      0
 ---------------------------------------------------------------------------------------------------
                         Z-Matrix orientation:                         
 ---------------------------------------------------------------------
 Center     Atomic      Atomic             Coordinates (Angstroms)
 Number     Number       Type             X           Y           Z
 ---------------------------------------------------------------------
      1          6           0        0.000000    0.000000    0.000000
      2          9           0        0.000000    0.000000    1.326416
      3          9           0        1.256116    0.000000   -0.426078
      4          9           0       -0.594431    1.106569   -0.426057
      5         17           0       -0.850753   -1.422745   -0.609786
 ---------------------------------------------------------------------
                    Distance matrix (angstroms):
                    1          2          3          4          5
     1  C    0.000000
     2  F    1.326416   0.000000
     3  F    1.326412   2.156169   0.000000
     4  F    1.326411   2.156155   2.156158   0.000000
     5  Cl   1.766302   2.548894   2.548891   2.548899   0.000000
 Stoichiometry    CClF3
 Framework group  C1[X(CClF3)]
 Deg. of freedom     9
 Full point group                 C1      NOp   1
 Largest Abelian subgroup         C1      NOp   1
 Largest concise Abelian subgroup C1      NOp   1
                         Standard orientation:                         
 ---------------------------------------------------------------------
 Center     Atomic      Atomic             Coordinates (Angstroms)
 Number     Number       Type             X           Y           Z
 ---------------------------------------------------------------------
      1          6           0        0.353263    0.000003   -0.000001
      2          9           0        0.811186   -1.008080   -0.730382
      3          9           0        0.811179    1.136573   -0.507831
      4          9           0        0.811201   -0.128490    1.238203
      5         17           0       -1.413039   -0.000003    0.000005
 ---------------------------------------------------------------------
 Rotational constants (GHZ):           5.7218698           3.3036833           3.3036684
 Standard basis: CC-pVTZ (5D, 7F)
 There are   179 symmetry adapted cartesian basis functions of A   symmetry.
 There are   154 symmetry adapted basis functions of A   symmetry.
   154 basis functions,   302 primitive gaussians,   179 cartesian basis functions
    25 alpha electrons       25 beta electrons
       nuclear repulsion energy       250.1209151529 Hartrees.
 NAtoms=    5 NActive=    5 NUniq=    5 SFac= 1.00D+00 NAtFMM=   60 NAOKFM=F Big=F
 Integral buffers will be    131072 words long.
 Regular integral format.
 Two-electron integral symmetry is turned on.
 One-electron integrals computed using PRISM.
 NBasis=   154 RedAO= T EigKep=  3.35D-03  NBF=   154
 NBsUse=   154 1.00D-06 EigRej= -1.00D+00 NBFU=   154
 Initial guess from the checkpoint file:  "checkpoint.chk"
 B after Tr=    -0.000000    0.000000   -0.000000
         Rot=    0.860264    0.509849    0.000027    0.000017 Ang=  61.31 deg.
 Keep R1 ints in memory in canonical form, NReq=75250644.
 Requested convergence on RMS density matrix=1.00D-08 within 128 cycles.
 Requested convergence on MAX density matrix=1.00D-06.
 Requested convergence on             energy=1.00D-06.
 No special actions if energy rises.
 SCF Done:  E(RB2PLYP) =  -797.321567082     A.U. after    6 cycles
            NFock=  6  Conv=0.28D-08     -V/T= 2.0025
 DoSCS=T DFT=T ScalE2(SS,OS)=  0.270000  0.270000
 ExpMin= 1.21D-01 ExpMax= 4.56D+05 ExpMxC= 1.44D+03 IAcc=3 IRadAn=         5 AccDes= 0.00D+00
 HarFok:  IExCor=  205 AccDes= 0.00D+00 IRadAn=         5 IDoV=-2 UseB2=F ITyADJ=14
 ICtDFT= 12500011 ScaDFX=  1.000000  1.000000  1.000000  1.000000
 Range of M.O.s used for correlation:    10   154
 NBasis=   154 NAE=    25 NBE=    25 NFC=     9 NFV=     0
 NROrb=    145 NOA=    16 NOB=    16 NVA=   129 NVB=   129
 DoSCS=T DFT=T ScalE2(SS,OS)=  0.270000  0.270000
 Disk-based method using ON**2 memory for 16 occupieds at a time.
 Permanent disk used for amplitudes=    12877425 words.
 Estimated scratch disk usage=   169067448 words.
 Actual    scratch disk usage=   163616184 words.
 GetIJB would need an additional    27355435 words of memory to use all   4 processors.
 JobTyp=1 Pass  1:  I=  10 to  25 NPSUse=  3 ParTrn=F ParDer=T DoDerP=T.
 Spin components of T(2) and E(2):
     alpha-alpha T2 =       0.5110440066D-01 E2=     -0.4716997030D-01
     alpha-beta  T2 =       0.2606527513D+00 E2=     -0.2569767345D+00
     beta-beta   T2 =       0.5110440066D-01 E2=     -0.4716997030D-01
 E2(B2PLYP) =    -0.3513166752D+00 E(B2PLYP) =    -0.79767288375713D+03
 G2DrvN: will do     6 centers at a time, making    1 passes.
 Calling FoFCou, ICntrl=  3107 FMM=F I1Cent=   0 AccDes= 0.00D+00.
 End of G2Drv F.D. properties file   721 does not exist.
 End of G2Drv F.D. properties file   722 does not exist.
 End of G2Drv F.D. properties file   788 does not exist.
          IDoAtm=11111
          Differentiating once with respect to electric field.
                with respect to dipole field.
          Differentiating once with respect to nuclear coordinates.
 Keep R1 ints in memory in canonical form, NReq=75241612.
          There are    18 degrees of freedom in the 1st order CPHF.  IDoFFX=6 NUNeed=    18.
     15 vectors produced by pass  0 Test12= 1.79D-14 5.56D-09 XBig12= 1.27D+01 2.48D+00.
 AX will form    15 AO Fock derivatives at one time.
     15 vectors produced by pass  1 Test12= 1.79D-14 5.56D-09 XBig12= 1.33D+00 2.84D-01.
     15 vectors produced by pass  2 Test12= 1.79D-14 5.56D-09 XBig12= 5.51D-02 6.75D-02.
     15 vectors produced by pass  3 Test12= 1.79D-14 5.56D-09 XBig12= 3.03D-03 1.36D-02.
     15 vectors produced by pass  4 Test12= 1.79D-14 5.56D-09 XBig12= 4.67D-05 2.02D-03.
     15 vectors produced by pass  5 Test12= 1.79D-14 5.56D-09 XBig12= 2.92D-07 1.63D-04.
     15 vectors produced by pass  6 Test12= 1.79D-14 5.56D-09 XBig12= 9.27D-10 7.55D-06.
      6 vectors produced by pass  7 Test12= 1.79D-14 5.56D-09 XBig12= 3.34D-12 3.87D-07.
      3 vectors produced by pass  8 Test12= 1.79D-14 5.56D-09 XBig12= 1.26D-14 2.47D-08.
 InvSVY:  IOpt=1 It=  1 EMax= 8.88D-16
 Solved reduced A of dimension   114 with    15 vectors.
 End of Minotr F.D. properties file   721 does not exist.
 End of Minotr F.D. properties file   722 does not exist.
 End of Minotr F.D. properties file   788 does not exist.
 MDV=   104857600.
 DoSCS=T DFT=T ScalE2(SS,OS)=  0.270000  0.270000
 Form MO integral derivatives with frozen-active canonical formalism.
 Discarding MO integrals.
 Reordered first order wavefunction length =     20801250
 In DefCFB: NBatch=  1 ICI= 25 ICA=129 LFMax= 26
            Large arrays: LIAPS=   355601400 LIARS=   157596075 words.
 Semi-Direct transformation.
 ModeAB=           2 MOrb=            25 LenV=     104074053
 LASXX=     40515675 LTotXX=    40515675 LenRXX=    40515675
 LTotAB=    41321125 MaxLAS=    62023500 LenRXY=    62023500
 NonZer=    81031350 LenScr=   122314752 LnRSAI=           0
 LnScr1=           0 LExtra=           0 Total=    224853927
 MaxDsk=          -1 SrtSym=           F ITran=            4
 JobTyp=0 Pass  1:  I=   1 to  25.
 (rs|ai) integrals will be sorted in core.
 SymMOI:  orbitals are not symmetric.
 DoSCS=T DFT=T ScalE2(SS,OS)=  0.270000  0.270000
 Spin components of T(2) and E(2):
     alpha-alpha T2 =       0.5110440066D-01 E2=     -0.4716997030D-01
     alpha-beta  T2 =       0.2606527513D+00 E2=     -0.2569767345D+00
     beta-beta   T2 =       0.5110440066D-01 E2=     -0.4716997030D-01
 E2(B2PLYP) =    -0.3513166752D+00 E(B2PLYP) =    -0.79767288375713D+03
          IDoAtm=11111
          Differentiating once with respect to electric field.
                with respect to dipole field.
          Differentiating once with respect to nuclear coordinates.
 Keep R1 ints in memory in canonical form, NReq=75254165.
          There are     1 degrees of freedom in the 1st order CPHF.  IDoFFX=0 NUNeed=     1.
 LinEq1:  Iter=  0 NonCon=     1 RMS=1.78D-03 Max=3.21D-02 NDo=     1
 AX will form     1 AO Fock derivatives at one time.
 LinEq1:  Iter=  1 NonCon=     1 RMS=7.01D-04 Max=1.35D-02 NDo=     1
 LinEq1:  Iter=  2 NonCon=     1 RMS=2.09D-04 Max=3.83D-03 NDo=     1
 LinEq1:  Iter=  3 NonCon=     1 RMS=7.13D-05 Max=1.23D-03 NDo=     1
 LinEq1:  Iter=  4 NonCon=     1 RMS=1.07D-05 Max=2.37D-04 NDo=     1
 LinEq1:  Iter=  5 NonCon=     1 RMS=2.94D-06 Max=5.49D-05 NDo=     1
 LinEq1:  Iter=  6 NonCon=     1 RMS=5.74D-07 Max=6.59D-06 NDo=     1
 LinEq1:  Iter=  7 NonCon=     1 RMS=1.72D-07 Max=3.97D-06 NDo=     1
 LinEq1:  Iter=  8 NonCon=     1 RMS=7.89D-08 Max=1.09D-06 NDo=     1
 LinEq1:  Iter=  9 NonCon=     1 RMS=1.73D-08 Max=2.89D-07 NDo=     1
 LinEq1:  Iter= 10 NonCon=     1 RMS=2.78D-09 Max=3.85D-08 NDo=     1
 LinEq1:  Iter= 11 NonCon=     1 RMS=4.32D-10 Max=4.31D-09 NDo=     1
 LinEq1:  Iter= 12 NonCon=     1 RMS=1.99D-10 Max=2.50D-09 NDo=     1
 LinEq1:  Iter= 13 NonCon=     0 RMS=4.98D-11 Max=6.23D-10 NDo=     1
 Linear equations converged to 1.000D-10 1.000D-09 after    13 iterations.
 End of Minotr F.D. properties file   721 does not exist.
 End of Minotr F.D. properties file   722 does not exist.
 End of Minotr F.D. properties file   788 does not exist.
 Symmetrizing basis deriv contribution to polar:
 IMax=3 JMax=2 DiffMx= 0.00D+00
 G2DrvN: will do     6 centers at a time, making    1 passes.
 Calling FoFCou, ICntrl=  3107 FMM=F I1Cent=   0 AccDes= 0.00D+00.
 End of G2Drv F.D. properties file   721 does not exist.
 End of G2Drv F.D. properties file   722 does not exist.
 End of G2Drv F.D. properties file   788 does not exist.
 DoSCS=T DFT=T ScalE2(SS,OS)=  0.270000  0.270000
 Would need an additional   157607146 words for in-memory AO integral storage.
 DD1Dir will call FoFJK  23 times, MxPair=        42
 NAB=   325 NAA=   300 NBB=     0 NumPrc=  4.
 FoFJK:  IHMeth= 1 ICntrl=     200 DoSepK=F KAlg= 0 I1Cent=           0 FoldK=F
 IRaf= 990000000 NMat=      42 IRICut=      52 DoRegI=T DoRafI=T ISym2E= 2 IDoP0=3 IntGTp=3.
 FoFCou: FMM=F IPFlag=           0 FMFlag=           0 FMFlg1=           0
         NFxFlg=           0 DoJE=F BraDBF=F KetDBF=F FulRan=T
         wScrn=  0.000000 ICntrl=       200 IOpCl=  0 I1Cent=           0 NGrid=           0
         NMat0=   42 NMatS0=      0 NMatT0=   21 NMatD0=   42 NMtDS0=    0 NMtDT0=    0
 Integrals replicated using symmetry in FoFCou.
 Raff kept on since  62.48% of shell-pairs survive, threshold=   0.20 IRatSp=62.
 Discarding MO integrals.
 Calling FoFJK, ICntrl=  10100127 FMM=F ISym2X=0 I1Cent= 0 IOpClX= 0 NMat=1 NMatS=1 NMatT=0.
 ***** Axes restored to original set *****
 -------------------------------------------------------------------
 Center     Atomic                   Forces (Hartrees/Bohr)
 Number     Number              X              Y              Z
 -------------------------------------------------------------------
      1        6          -0.000000330   -0.000002684    0.000002179
      2        9           0.000002696   -0.000001471   -0.000001806
      3        9          -0.000000041    0.000001543    0.000001625
      4        9          -0.000001452    0.000002186   -0.000001970
      5       17          -0.000000873    0.000000426   -0.000000028
 -------------------------------------------------------------------
 Cartesian Forces:  Max     0.000002696 RMS     0.000001663
 -----------------------------------------------------------------------------------------------
                       Internal Coordinate Forces (Hartree/Bohr or radian)
  Cent   Atom   N1       Length/X         N2         Alpha/Y        N3         Beta/Z          J
 -----------------------------------------------------------------------------------------------
      1  C 
      2  F        1  -0.000002(     1)
      3  F        1  -0.000001(     2)      2  -0.000004(     5)
      4  F        1   0.000003(     3)      2   0.000003(     6)      3  -0.000001(     8)     0
      5  Cl       1   0.000000(     4)      2  -0.000000(     7)      3   0.000003(     9)     0
 -----------------------------------------------------------------------------------------------
 Internal  Forces:  Max     0.000003824 RMS     0.000002211

 GradGradGradGradGradGradGradGradGradGradGradGradGradGradGradGradGradGrad
 Berny optimization.
 Search for a local minimum.
 Step number   4 out of a maximum of   20
 All quantities printed in internal units (Hartrees-Bohrs-Radians)
 Second derivative matrix not updated -- analytic derivatives used.
 DE=  7.93D-08 DEPred=-4.35D-08 R=-1.82D+00
 Trust test=-1.82D+00 RLast= 7.51D-04 DXMaxT set to 1.60D-01
 The second derivative matrix:
                          r2        r3        a3        r4        a4
           r2           0.41632
           r3           0.05383   0.41634
           a3           0.08509   0.01006   0.50929
           r4           0.05384   0.05383  -0.03785   0.41635
           a4           0.08507  -0.03785   0.13934   0.01007   0.50926
           d4          -0.00260  -0.07224   0.08637  -0.01591   0.01382
           r5           0.03761   0.03761  -0.03582   0.03761  -0.03581
           a5           0.06927  -0.03463   0.12342  -0.03463   0.12340
           d5           0.00000   0.05629  -0.07254  -0.05629   0.07252
                          d4        r5        a5        d5
           d4           0.44277
           r5           0.05672   0.22645
           a5          -0.06838  -0.00001   0.41729
           d5          -0.18369   0.00000   0.00002   0.36754
 ITU= -1  1  1  0
     Eigenvalues ---    0.13294   0.20742   0.26853   0.33045   0.36696
     Eigenvalues ---    0.41369   0.53386   0.66760   0.80017
 RFO step:  Lambda= 0.00000000D+00 EMin= 1.32941513D-01
 Quintic linear search produced a step of -0.83168.
 Variable       Old X    -DE/DX   Delta X   Delta X   Delta X     New X
                                 (Linear)    (Quad)   (Total)
    r2        2.50656  -0.00000   0.00001  -0.00004  -0.00003   2.50653
    r3        2.50656  -0.00000   0.00002  -0.00006  -0.00004   2.50652
    a3        1.89782  -0.00000   0.00008  -0.00001   0.00007   1.89789
    r4        2.50655   0.00000  -0.00001  -0.00009  -0.00010   2.50645
    a4        1.89780   0.00000   0.00013   0.00003   0.00016   1.89796
    d4        4.21944  -0.00000  -0.00035  -0.00002  -0.00037   4.21907
    r5        3.33783   0.00000   0.00037   0.00004   0.00041   3.33824
    a5        1.92328  -0.00000  -0.00019  -0.00002  -0.00021   1.92308
    d5        2.10972   0.00000  -0.00027  -0.00006  -0.00032   2.10939
         Item               Value     Threshold  Converged?
 Maximum Force            0.000004     0.000002     NO 
 RMS     Force            0.000002     0.000001     NO 
[...]
 ---------------------------------------------------------------------
                    Distance matrix (angstroms):
                    1          2          3          4          5
     1  C    0.000000
     2  F    1.326397   0.000000
     3  F    1.326359   2.156232   0.000000
     4  F    1.326439   2.156162   2.156190   0.000000
     5  Cl   1.766490   2.548942   2.549000   2.549008   0.000000
 Stoichiometry    CClF3
 Framework group  C1[X(CClF3)]
 Deg. of freedom     9
 Full point group                 C1      NOp   1
 Largest Abelian subgroup         C1      NOp   1
 Largest concise Abelian subgroup C1      NOp   1
                         Standard orientation:                         
 ---------------------------------------------------------------------
 Center     Atomic      Atomic             Coordinates (Angstroms)
 Number     Number       Type             X           Y           Z
 ---------------------------------------------------------------------
      1          6           0        0.353380    0.000042   -0.000043
      2          9           0        0.811125   -0.929352   -0.828308
      3          9           0        0.811228    1.181998   -0.390661
      4          9           0        0.811271   -0.252706    1.218930
      5         17           0       -1.413111    0.000017    0.000036
 ---------------------------------------------------------------------
 Rotational constants (GHZ):           5.7216880           3.3034690           3.3033979

 **********************************************************************

            Population analysis using the SCF Density.

 **********************************************************************

 Orbital symmetries:
       Occupied  (A) (A) (A) (A) (A) (A) (A) (A) (A) (A) (A) (A)
                 (A) (A) (A) (A) (A) (A) (A) (A) (A) (A) (A) (A)
                 (A)
       Virtual   (A) (A) (A) (A) (A) (A) (A) (A) (A) (A) (A) (A)
                 (A) (A) (A) (A) (A) (A) (A) (A) (A) (A) (A) (A)
                 (A) (A) (A) (A) (A) (A) (A) (A) (A) (A) (A) (A)
                 (A) (A) (A) (A) (A) (A) (A) (A) (A) (A) (A) (A)
                 (A) (A) (A) (A) (A) (A) (A) (A) (A) (A) (A) (A)
                 (A) (A) (A) (A) (A) (A) (A) (A) (A) (A) (A) (A)
                 (A) (A) (A) (A) (A) (A) (A) (A) (A) (A) (A) (A)
                 (A) (A) (A) (A) (A) (A) (A) (A) (A) (A) (A) (A)
                 (A) (A) (A) (A) (A) (A) (A) (A) (A) (A) (A) (A)
                 (A) (A) (A) (A) (A) (A) (A) (A) (A) (A) (A) (A)
                 (A) (A) (A) (A) (A) (A) (A) (A) (A)
 The electronic state is 1-A.
 Alpha  occ. eigenvalues -- -102.97247 -25.42769 -25.42767 -25.42765 -10.95346
 Alpha  occ. eigenvalues --   -9.96157  -7.60203  -7.59536  -7.59536  -1.52992
 Alpha  occ. eigenvalues --   -1.43468  -1.43464  -1.01698  -0.82944  -0.72962
 Alpha  occ. eigenvalues --   -0.72960  -0.69212  -0.60296  -0.60295  -0.56479
 Alpha  occ. eigenvalues --   -0.56477  -0.54182  -0.50055  -0.41956  -0.41956
 Alpha virt. eigenvalues --    0.06246   0.19730   0.19734   0.22571   0.27663
 Alpha virt. eigenvalues --    0.34299   0.34300   0.35148   0.41180   0.41182
 Alpha virt. eigenvalues --    0.41951   0.49329   0.49329   0.54888   0.54888
 Alpha virt. eigenvalues --    0.66815   0.71540   0.71541   0.80213   0.84240
 Alpha virt. eigenvalues --    0.84242   0.94409   0.94679   0.98042   0.98045
 Alpha virt. eigenvalues --    1.04822   1.05760   1.05762   1.18076   1.18077
 Alpha virt. eigenvalues --    1.20067   1.61680   1.61682   1.77938   1.85876
 Alpha virt. eigenvalues --    1.96664   1.98137   1.98137   2.00722   2.00724
 Alpha virt. eigenvalues --    2.01849   2.01851   2.03961   2.03963   2.07122
 Alpha virt. eigenvalues --    2.10851   2.10853   2.17847   2.19021   2.22093
 Alpha virt. eigenvalues --    2.27010   2.27013   2.32257   2.34738   2.34739
 Alpha virt. eigenvalues --    2.40286   2.43621   2.43630   2.60936   2.60941
 Alpha virt. eigenvalues --    2.63067   2.66098   2.96679   2.96680   3.08951
 Alpha virt. eigenvalues --    3.08952   3.16923   3.16925   3.28990   3.41787
 Alpha virt. eigenvalues --    3.51750   3.57112   3.57112   3.64352   3.65840
 Alpha virt. eigenvalues --    3.65847   3.68669   3.68670   3.90191   4.78054
 Alpha virt. eigenvalues --    4.95409   4.98273   4.98280   4.99580   4.99584
 Alpha virt. eigenvalues --    5.07853   5.43250   6.15145   6.15157   6.97239
 Alpha virt. eigenvalues --    7.01280   7.01282   7.01319   7.01653   7.01655
 Alpha virt. eigenvalues --    7.01901   7.01903   7.02140   7.11783   7.14055
 Alpha virt. eigenvalues --    7.14056   7.17585   7.24621   7.24625   7.43622
 Alpha virt. eigenvalues --    7.49724   7.49733   7.71051   7.71052   7.72389
 Alpha virt. eigenvalues --    8.47694   8.47696   8.51181   8.53322   8.57126
 Alpha virt. eigenvalues --    8.57128   8.63787   8.90951   8.95954   8.95957
 Alpha virt. eigenvalues --    9.04575   9.23918   9.23920   9.26004   9.26004
 Alpha virt. eigenvalues --   10.19518  11.45985  11.46001  12.01212
          Condensed to atoms (all electrons):
               1          2          3          4          5
     1  C    3.809491   0.415822   0.415839   0.415805   0.372592
     2  F    0.415822   8.890328  -0.048739  -0.048757  -0.052308
     3  F    0.415839  -0.048739   8.890257  -0.048750  -0.052297
     4  F    0.415805  -0.048757  -0.048750   8.890385  -0.052299
     5  Cl   0.372592  -0.052308  -0.052297  -0.052299  16.885721
 Mulliken charges:
               1
     1  C    0.570451
     2  F   -0.156347
     3  F   -0.156310
     4  F   -0.156384
     5  Cl  -0.101409
 Sum of Mulliken charges =  -0.00000
 Mulliken charges with hydrogens summed into heavy atoms:
               1
     1  C    0.570451
     2  F   -0.156347
     3  F   -0.156310
     4  F   -0.156384
     5  Cl  -0.101409
 APT charges:
               1
     1  C    1.923073
     2  F   -0.546153
     3  F   -0.546137
     4  F   -0.546171
     5  Cl  -0.284611
 Sum of APT charges =  -0.00000
 APT charges with hydrogens summed into heavy atoms:
               1
     1  C    1.923073
     2  F   -0.546153
     3  F   -0.546137
     4  F   -0.546171
     5  Cl  -0.284611
 Electronic spatial extent (au):  <R**2>=            409.9589
 Charge=             -0.0000 electrons
 Dipole moment (field-independent basis, Debye):
    X=             -0.4026    Y=              0.0004    Z=             -0.0003  Tot=              0.4026
 Quadrupole moment (field-independent basis, Debye-Ang):
   XX=            -31.7213   YY=            -33.3571   ZZ=            -33.3575
   XY=              0.0003   XZ=             -0.0004   YZ=             -0.0000
 Traceless Quadrupole moment (field-independent basis, Debye-Ang):
   XX=              1.0906   YY=             -0.5451   ZZ=             -0.5455
   XY=              0.0003   XZ=             -0.0004   YZ=             -0.0000
 Octapole moment (field-independent basis, Debye-Ang**2):
  XXX=              7.5361  YYY=             -0.5017  ZZZ=             -0.7138  XYY=              3.6345
  XXY=             -0.0001  XXZ=             -0.0002  XZZ=              3.6341  YZZ=              0.5019
  YYZ=              0.7129  XYZ=              0.0000
 Hexadecapole moment (field-independent basis, Debye-Ang**3):
 XXXX=           -218.1678 YYYY=            -93.5410 ZZZZ=            -93.5382 XXXY=              0.0010
 XXXZ=             -0.0007 YYYX=             -0.1896 YYYZ=              0.0000 ZZZX=             -0.2703
 ZZZY=             -0.0002 XXYY=            -55.9852 XXZZ=            -55.9849 YYZZ=            -31.1799
 XXYZ=             -0.0000 YYXZ=              0.2706 ZZXY=              0.1906
 N-N= 2.501141346873D+02 E-N=-2.396776216517D+03  KE= 7.953213824029D+02
  Exact polarizability:      24.364       3.925      28.581       1.681       2.812      23.221
 Approx polarizability:      35.931       0.000      26.395      -0.000      -0.000      26.394
 Rotating derivatives to standard orientation.
 Full mass-weighted force constant matrix:
 Low frequencies ---   -0.0026    0.0007    0.0029    2.9117    3.5217    4.8386
 Low frequencies ---  346.9732  347.0249  470.3917
 Diagonal vibrational polarizability:
       12.5609352       5.4717445       5.4727715
 Harmonic frequencies (cm**-1), IR intensities (KM/Mole), Raman scattering
 activities (A**4/AMU), depolarization ratios for plane and unpolarized
 incident light, reduced masses (AMU), force constants (mDyne/A),
 and normal coordinates:
                      1                      2                      3
                      A                      A                      A
 Frequencies --    346.9732               347.0249               470.3917
 Red. masses --     20.3450                20.3450                26.2764
 Frc consts  --      1.4431                 1.4435                 3.4256
 IR Inten    --      0.0228                 0.0229                 0.4684
  Atom  AN      X      Y      Z        X      Y      Z        X      Y      Z
     1   6     0.00  -0.08   0.21    -0.00  -0.21  -0.08    -0.08   0.00  -0.00
     2   9    -0.23  -0.20   0.22     0.64  -0.06   0.09    -0.40  -0.11  -0.09
     3   9    -0.44   0.08   0.23    -0.52  -0.06  -0.20    -0.40   0.13  -0.04
     4   9     0.67  -0.05  -0.02    -0.12  -0.31  -0.06    -0.40  -0.03   0.14
     5  17    -0.00   0.12  -0.30     0.00   0.30   0.12     0.68  -0.00  -0.00
                      4                      5                      6
                      A                      A                      A
 Frequencies --    562.6774               562.6885               784.9910
 Red. masses --     18.1773                18.1770                17.6229
 Frc consts  --      3.3908                 3.3909                 6.3982
 IR Inten    --      1.7671                 1.7721                39.6146
  Atom  AN      X      Y      Z        X      Y      Z        X      Y      Z
     1   6    -0.00   0.02   0.37     0.00   0.37  -0.02     0.50   0.00  -0.00
     2   9    -0.11   0.52  -0.05    -0.11   0.02   0.52    -0.01  -0.37  -0.33
     3   9    -0.04  -0.29  -0.45     0.15   0.41  -0.29    -0.01   0.47  -0.15
     4   9     0.15  -0.23   0.45    -0.04  -0.49  -0.23    -0.01  -0.10   0.48
     5  17     0.00  -0.00  -0.10    -0.00  -0.10   0.00    -0.15  -0.00   0.00
                      7                      8                      9
                      A                      A                      A
 Frequencies --   1100.0049              1227.7316              1227.9378
 Red. masses --     13.4576                13.1942                13.1944
 Frc consts  --      9.5942                11.7176                11.7217
 IR Inten    --    484.4283               297.8389               297.8533
  Atom  AN      X      Y      Z        X      Y      Z        X      Y      Z
     1   6     0.89  -0.00   0.00    -0.00   0.10   0.91     0.00   0.91  -0.10
     2   9    -0.16   0.15   0.14     0.08  -0.15  -0.18     0.08  -0.18  -0.11
     3   9    -0.16  -0.19   0.06     0.02   0.04  -0.07    -0.11  -0.29   0.09
     4   9    -0.16   0.04  -0.20    -0.11   0.04  -0.29     0.03  -0.07   0.08
     5  17    -0.05   0.00  -0.00     0.00  -0.00  -0.01    -0.00  -0.01   0.00

 -------------------
 - Thermochemistry -
 -------------------
 Temperature   298.150 Kelvin.  Pressure   1.00000 Atm.
 Atom     1 has atomic number  6 and mass  12.00000
 Atom     2 has atomic number  9 and mass  18.99840
 Atom     3 has atomic number  9 and mass  18.99840
 Atom     4 has atomic number  9 and mass  18.99840
 Atom     5 has atomic number 17 and mass  34.96885
 Molecular mass:   103.96406 amu.
 Principal axes and moments of inertia in atomic units:
                           1         2         3
     Eigenvalues --   315.42111 546.31698 546.32873
           X            1.00000  -0.00000  -0.00000
           Y            0.00000   1.00000  -0.00000
           Z            0.00000   0.00000   1.00000
 This molecule is an asymmetric top.
 Rotational symmetry number  1.
 Rotational temperatures (Kelvin)      0.27460     0.15854     0.15854
 Rotational constants (GHZ):           5.72169     3.30347     3.30340
 Zero-point vibrational energy      39658.7 (Joules/Mol)
                                    9.47866 (Kcal/Mol)
 Warning -- explicit consideration of   5 degrees of freedom as
           vibrations may cause significant error
 Vibrational temperatures:    499.22   499.29   676.79   809.57   809.58
          (Kelvin)           1129.43  1582.66  1766.43  1766.73
 
 Zero-point correction=                           0.015105 (Hartree/Particle)
 Thermal correction to Energy=                    0.019415
 Thermal correction to Enthalpy=                  0.020359
 Thermal correction to Gibbs Free Energy=        -0.013075
 Sum of electronic and zero-point Energies=           -797.657778
 Sum of electronic and thermal Energies=              -797.653468
 Sum of electronic and thermal Enthalpies=            -797.652524
 Sum of electronic and thermal Free Energies=         -797.685959
 
                     E (Thermal)             CV                S
                      KCal/Mol        Cal/Mol-Kelvin    Cal/Mol-Kelvin
 Total                   12.183             13.995             70.369
 Electronic               0.000              0.000              0.000
 Translational            0.889              2.981             39.834
 Rotational               0.889              2.981             26.046
 Vibrational             10.406              8.033              4.489
 Vibration     1          0.725              1.581              1.180
 Vibration     2          0.725              1.581              1.180
 Vibration     3          0.827              1.316              0.736
 Vibration     4          0.918              1.112              0.519
 Vibration     5          0.918              1.112              0.518
                       Q            Log10(Q)             Ln(Q)
 Total Bot       0.103304D+07          6.014118         13.848019
 Total V=0       0.916277D+13         12.962027         29.846170
 Vib (Bot)       0.225735D-06         -6.646401        -15.303903
 Vib (Bot)    1  0.532781D+00         -0.273451         -0.629645
 Vib (Bot)    2  0.532684D+00         -0.273531         -0.629828
 Vib (Bot)    3  0.358464D+00         -0.445555         -1.025928
 Vib (Bot)    4  0.275498D+00         -0.559881         -1.289174
 Vib (Bot)    5  0.275490D+00         -0.559894         -1.289205
 Vib (V=0)       0.200220D+01          0.301508          0.694247
 Vib (V=0)    1  0.123065D+01          0.090136          0.207546
 Vib (V=0)    2  0.123058D+01          0.090111          0.207488
 Vib (V=0)    3  0.111522D+01          0.047361          0.109052
 Vib (V=0)    4  0.107088D+01          0.029739          0.068477
 Vib (V=0)    5  0.107087D+01          0.029737          0.068473
 Electronic      0.100000D+01          0.000000          0.000000
 Translational   0.416657D+08          7.619779         17.545189
 Rotational      0.109835D+06          5.040740         11.606734
 ***** Axes restored to original set *****
 -------------------------------------------------------------------
 Center     Atomic                   Forces (Hartrees/Bohr)
 Number     Number              X              Y              Z
 -------------------------------------------------------------------
      1        6          -0.000098895   -0.000043737   -0.000028553
      2        9           0.000024570    0.000006731   -0.000003785
      3        9           0.000013732    0.000003313    0.000011887
      4        9           0.000026497   -0.000015690    0.000004177
      5       17           0.000034096    0.000049383    0.000016275
 -------------------------------------------------------------------
 Cartesian Forces:  Max     0.000098895 RMS     0.000034971
 -----------------------------------------------------------------------------------------------
                       Internal Coordinate Forces (Hartree/Bohr or radian)
  Cent   Atom   N1       Length/X         N2         Alpha/Y        N3         Beta/Z          J
 -----------------------------------------------------------------------------------------------
      1  C 
      2  F        1  -0.000004(     1)
      3  F        1   0.000009(     2)      2  -0.000039(     5)
      4  F        1  -0.000026(     3)      2   0.000011(     6)      3   0.000038(     8)     0
      5  Cl       1  -0.000062(     4)      2   0.000018(     7)      3  -0.000012(     9)     0
 -----------------------------------------------------------------------------------------------
 Internal  Forces:  Max     0.000061819 RMS     0.000030156

 ----------------------------------------------------------------------

 Electric dipole moment (input orientation):
 (Debye = 10**-18 statcoulomb cm , SI units = C m)
                  (au)            (Debye)         (10**-30 SI)
   Tot        0.124209D+00      0.315708D+00      0.105309D+01
   x         -0.596617D-01     -0.151645D+00     -0.505833D+00
   y         -0.100149D+00     -0.254553D+00     -0.849096D+00
   z         -0.428790D-01     -0.108988D+00     -0.363543D+00

 Dipole polarizability, Alpha (input orientation).
 (esu units = cm**3 , SI units = C**2 m**2 J**-1)
 Alpha(0;0):
               (au)            (10**-24 esu)      (10**-40 SI)
   iso        0.253885D+02      0.376219D+01      0.418600D+01
   aniso      0.101168D+02      0.149916D+01      0.166804D+01
   xx         0.243636D+02      0.361031D+01      0.401701D+01
   yx         0.392531D+01      0.581671D+00      0.647197D+00
   yy         0.285813D+02      0.423532D+01      0.471242D+01
   zx         0.168139D+01      0.249156D+00      0.277223D+00
   zy         0.281237D+01      0.416750D+00      0.463697D+00
   zz         0.232206D+02      0.344095D+01      0.382857D+01

 ----------------------------------------------------------------------

 Dipole orientation:
     6         -0.00000000          0.00000000          0.00000000
     9         -1.20396698          2.02099095         -0.86529431
     9          2.35332605          0.03384986         -0.86198913
     9         -1.14621779         -2.05315508         -0.86822320
    17         -0.00462320         -0.00236565          3.33817895

 Electric dipole moment (dipole orientation):
 (Debye = 10**-18 statcoulomb cm , SI units = C m)
                  (au)            (Debye)         (10**-30 SI)
   Tot        0.124209D+00      0.315708D+00      0.105309D+01
   x          0.000000D+00      0.000000D+00      0.000000D+00
   y          0.000000D+00      0.000000D+00      0.000000D+00
   z          0.124209D+00      0.315708D+00      0.105309D+01

 Dipole polarizability, Alpha (dipole orientation).
 (esu units = cm**3 , SI units = C**2 m**2 J**-1)
 Alpha(0;0):
               (au)            (10**-24 esu)      (10**-40 SI)
   iso        0.253885D+02      0.376219D+01      0.418600D+01
   aniso      0.101168D+02      0.149916D+01      0.166804D+01
   xx         0.220166D+02      0.326252D+01      0.363004D+01
   yx         0.158545D-03      0.234939D-04      0.261405D-04
   yy         0.220160D+02      0.326243D+01      0.362994D+01
   zx        -0.139990D-01     -0.207444D-02     -0.230812D-02
   zy        -0.649010D-02     -0.961734D-03     -0.107007D-02
   zz         0.321330D+02      0.476162D+01      0.529802D+01

 ----------------------------------------------------------------------


 A HARD FALL SHOULD MEAN A HIGH BOUNCE 
 IF ONE IS MADE OF THE RIGHT MATERIAL.

                -- THE CHEMIST ANALYST, MARCH 1950
 Error termination request processed by link 9999.
 Error termination via Lnk1e in /apps/gaussian/g16c01/g16/l9999.exe at Mon Sep 21 13:31:13 2020.
 Job cpu time:       0 days 15 hours 32 minutes  3.0 seconds.
 Elapsed time:       0 days  7 hours 44 minutes  6.6 seconds.
 File lengths (MBytes):  RWF=   4218 Int=      0 D2E=      0 Chk=      3 Scr=      1
