 Entering Gaussian System, Link 0=g16
 Input=CFC-11.gjf
 Output=CFC-11.log
 Initial command:
 /apps/gaussian/g16c01/g16/l1.exe "/jobfs/11499349.gadi-pbs/Gau-1085451.inp" -scrdir="/jobfs/11499349.gadi-pbs/"
 Entering Link 1 = /apps/gaussian/g16c01/g16/l1.exe PID=   1085452.
  
 Copyright (c) 1988-2019, Gaussian, Inc.  All Rights Reserved.
  
 This is part of the Gaussian(R) 16 program.  It is based on
 the Gaussian(R) 09 system (copyright 2009, Gaussian, Inc.),
 the Gaussian(R) 03 system (copyright 2003, Gaussian, Inc.),
 the Gaussian(R) 98 system (copyright 1998, Gaussian, Inc.),
 the Gaussian(R) 94 system (copyright 1995, Gaussian, Inc.),
 the Gaussian 92(TM) system (copyright 1992, Gaussian, Inc.),
 the Gaussian 90(TM) system (copyright 1990, Gaussian, Inc.),
 the Gaussian 88(TM) system (copyright 1988, Gaussian, Inc.),
 the Gaussian 86(TM) system (copyright 1986, Carnegie Mellon
 University), and the Gaussian 82(TM) system (copyright 1983,
 Carnegie Mellon University). Gaussian is a federally registered
 trademark of Gaussian, Inc.
  
 This software contains proprietary and confidential information,
 including trade secrets, belonging to Gaussian, Inc.
  
 This software is provided under written license and may be
 used, copied, transmitted, or stored only in accord with that
 written license.
  
 The following legend is applicable only to US Government
 contracts under FAR:
  
                    RESTRICTED RIGHTS LEGEND
  
 Use, reproduction and disclosure by the US Government is
 subject to restrictions as set forth in subparagraphs (a)
 and (c) of the Commercial Computer Software - Restricted
 Rights clause in FAR 52.227-19.
  
 Gaussian, Inc.
 340 Quinnipiac St., Bldg. 40, Wallingford CT 06492
  
  
 ---------------------------------------------------------------
 Warning -- This program may not be used in any manner that
 competes with the business of Gaussian, Inc. or will provide
 assistance to any competitor of Gaussian, Inc.  The licensee
 of this program is prohibited from giving any competitor of
 Gaussian, Inc. access to this program.  By using this program,
 the user acknowledges that Gaussian, Inc. is engaged in the
 business of creating and licensing software in the field of
 computational chemistry and represents and warrants to the
 licensee that it is not a competitor of Gaussian, Inc. and that
 it will not use this program in any manner prohibited above.
 ---------------------------------------------------------------
  

 Cite this work as:
 Gaussian 16, Revision C.01,
 M. J. Frisch, G. W. Trucks, H. B. Schlegel, G. E. Scuseria, 
 M. A. Robb, J. R. Cheeseman, G. Scalmani, V. Barone, 
 G. A. Petersson, H. Nakatsuji, X. Li, M. Caricato, A. V. Marenich, 
 J. Bloino, B. G. Janesko, R. Gomperts, B. Mennucci, H. P. Hratchian, 
 J. V. Ortiz, A. F. Izmaylov, J. L. Sonnenberg, D. Williams-Young, 
 F. Ding, F. Lipparini, F. Egidi, J. Goings, B. Peng, A. Petrone, 
 T. Henderson, D. Ranasinghe, V. G. Zakrzewski, J. Gao, N. Rega, 
 G. Zheng, W. Liang, M. Hada, M. Ehara, K. Toyota, R. Fukuda, 
 J. Hasegawa, M. Ishida, T. Nakajima, Y. Honda, O. Kitao, H. Nakai, 
 T. Vreven, K. Throssell, J. A. Montgomery, Jr., J. E. Peralta, 
 F. Ogliaro, M. J. Bearpark, J. J. Heyd, E. N. Brothers, K. N. Kudin, 
 V. N. Staroverov, T. A. Keith, R. Kobayashi, J. Normand, 
 K. Raghavachari, A. P. Rendell, J. C. Burant, S. S. Iyengar, 
 J. Tomasi, M. Cossi, J. M. Millam, M. Klene, C. Adamo, R. Cammi, 
 J. W. Ochterski, R. L. Martin, K. Morokuma, O. Farkas, 
 J. B. Foresman, and D. J. Fox, Gaussian, Inc., Wallingford CT, 2019.
 
 ******************************************
 Gaussian 16:  ES64L-G16RevC.01  3-Jul-2019
                19-Sep-2020 
 ******************************************
 %NprocShared=4
 Will use up to    4 processors via shared memory.
 %chk=checkpoint.chk
 -------------------------------------------------------------------
 # B2PLYP/cc-pVDZ Freq Opt=(VeryTight,ZMatrix,CalcAll) Int=UltraFine
 -------------------------------------------------------------------
 1/7=1,10=4,18=40,38=1/1,3;
 2/12=2,17=6,18=5,29=3,40=1/2;
 3/5=16,11=9,25=1,30=1,71=2,74=-47,75=-5,140=1/1,2,3;
 4//1;
 5/5=2,38=5/2;
 8/6=3,8=1,10=1,19=11,30=-1/1;
 9/15=3,16=-3/6;
 11/6=1,8=1,15=11,17=12,24=-1,27=1,28=-2,29=300,32=6,42=3/1,2,10;
 10/6=2,21=1/2;
 8/6=4,8=1,10=1,19=11,30=-1/11,4;
 10/5=1,20=4/2;
 11/12=2,14=11,16=1,17=2,28=-2,42=3,76=2/2,10,12;
 6/7=2,8=2,9=2,10=2,18=1/1;
 7/10=1,12=2,25=1,44=2/1,2,3,16;
 1/7=1,10=4,18=40/3(3);
 2/29=3/2;
 7/8=1,9=1,25=1,44=-1/16;
 99//99;
 2/29=3/2;
 3/5=16,11=9,25=1,30=1,71=2,74=-47,75=-5,140=1/1,2,3;
 4/5=5,16=3,69=1/1;
 5/5=2,38=5/2;
 8/6=3,8=1,10=1,19=11,30=-1/1;
 9/15=3,16=-3/6;
 11/6=1,8=1,15=11,17=12,24=-1,27=1,28=-2,29=300,32=6,42=3/1,2,10;
 10/6=2,21=1/2;
 8/6=4,8=1,10=1,19=11,30=-1/11,4;
 10/5=1,20=4/2;
 11/12=2,14=11,16=1,17=2,28=-2,42=3,76=2/2,10,12;
 7/10=1,12=2,25=1,44=2/1,2,3,16;
 1/7=1,10=4,18=40/3(-12);
 2/29=3/2;
 6/7=2,8=2,9=2,10=2,18=1/1;
 7/8=1,9=1,25=1,44=-1/16;
 99//99;
 -----------------------------------
 CFC-11 - CCl3F HARMONIC FREQUENCIES
 -----------------------------------
 Symbolic Z-matrix:
 Charge =  0 Multiplicity = 1
 C
 F                    1    r2
 Cl                   1    r3       2    a3
 Cl                   1    r4       2    a4       3    d4       0
 Cl                   1    r5       2    a5       3    d5       0
       Variables:
  r2                    1.3604                   
  r3                    1.7749                   
  a3                  108.75                     
  r4                    1.7749                   
  a4                  108.75                     
  d4                  240.                       
  r5                    1.7749                   
  a5                  108.75                     
  d5                  120.                       
 

 GradGradGradGradGradGradGradGradGradGradGradGradGradGradGradGradGradGrad
 Berny optimization.
 Initialization pass.
                       ----------------------------
                       !    Initial Parameters    !
                       ! (Angstroms and Degrees)  !
 ----------------------                            ----------------------
 !      Name          Value   Derivative information (Atomic Units)     !
 ------------------------------------------------------------------------
 !       r2          1.3604   calculate D2E/DX2 analytically            !
 !       r3          1.7749   calculate D2E/DX2 analytically            !
 !       a3        108.75     calculate D2E/DX2 analytically            !
 !       r4          1.7749   calculate D2E/DX2 analytically            !
 !       a4        108.75     calculate D2E/DX2 analytically            !
 !       d4        240.0      calculate D2E/DX2 analytically            !
 !       r5          1.7749   calculate D2E/DX2 analytically            !
 !       a5        108.75     calculate D2E/DX2 analytically            !
 !       d5        120.0      calculate D2E/DX2 analytically            !
 ------------------------------------------------------------------------
 Trust Radius=3.00D-01 FncErr=1.00D-07 GrdErr=1.00D-07 EigMax=2.50D+02 EigMin=1.00D-04
 Number of steps in this run=     20 maximum allowed number of steps=    100.
 GradGradGradGradGradGradGradGradGradGradGradGradGradGradGradGradGradGrad

 ---------------------------------------------------------------------------------------------------
                            Z-MATRIX (ANGSTROMS AND DEGREES)
   CD    Cent   Atom    N1       Length/X        N2       Alpha/Y        N3        Beta/Z          J
 ---------------------------------------------------------------------------------------------------
      1      1  C 
      2      2  F        1   1.360400(     1)
      3      3  Cl       1   1.774900(     2)      2  108.750(     5)
      4      4  Cl       1   1.774900(     3)      2  108.750(     6)      3  240.000(     8)      0
      5      5  Cl       1   1.774900(     4)      2  108.750(     7)      3  120.000(     9)      0
 ---------------------------------------------------------------------------------------------------
                         Z-Matrix orientation:                         
 ---------------------------------------------------------------------
 Center     Atomic      Atomic             Coordinates (Angstroms)
 Number     Number       Type             X           Y           Z
 ---------------------------------------------------------------------
      1          6           0        0.000000    0.000000    0.000000
      2          9           0        0.000000    0.000000    1.360400
      3         17           0        1.680706    0.000000   -0.570523
      4         17           0       -0.840353    1.455534   -0.570523
      5         17           0       -0.840353   -1.455534   -0.570523
 ---------------------------------------------------------------------
                    Distance matrix (angstroms):
                    1          2          3          4          5
     1  C    0.000000
     2  F    1.360400   0.000000
     3  Cl   1.774900   2.559929   0.000000
     4  Cl   1.774900   2.559929   2.911069   0.000000
     5  Cl   1.774900   2.559929   2.911069   2.911069   0.000000
 Stoichiometry    CCl3F
 Framework group  C3V[C3(CF),3SGV(Cl)]
 Deg. of freedom     3
 Full point group                 C3V     NOp   6
 Largest Abelian subgroup         CS      NOp   2
 Largest concise Abelian subgroup CS      NOp   2
                         Standard orientation:                         
 ---------------------------------------------------------------------
 Center     Atomic      Atomic             Coordinates (Angstroms)
 Number     Number       Type             X           Y           Z
 ---------------------------------------------------------------------
      1          6           0        0.000000    0.000000    0.255350
      2          9           0        0.000000    0.000000    1.615750
      3         17           0        0.000000    1.680706   -0.315173
      4         17           0       -1.455534   -0.840353   -0.315173
      5         17           0        1.455534   -0.840353   -0.315173
 ---------------------------------------------------------------------
 Rotational constants (GHZ):           2.4184698           2.4184698           1.7054183
 Standard basis: CC-pVDZ (5D, 7F)
 There are    55 symmetry adapted cartesian basis functions of A'  symmetry.
 There are    32 symmetry adapted cartesian basis functions of A"  symmetry.
 There are    51 symmetry adapted basis functions of A'  symmetry.
 There are    31 symmetry adapted basis functions of A"  symmetry.
    82 basis functions,   279 primitive gaussians,    87 cartesian basis functions
    33 alpha electrons       33 beta electrons
       nuclear repulsion energy       364.7242255392 Hartrees.
 NAtoms=    5 NActive=    5 NUniq=    3 SFac= 2.78D+00 NAtFMM=   60 NAOKFM=F Big=F
 Integral buffers will be    131072 words long.
 Regular integral format.
 Two-electron integral symmetry is turned on.
 One-electron integrals computed using PRISM.
 NBasis=    82 RedAO= T EigKep=  9.95D-03  NBF=    51    31
 NBsUse=    82 1.00D-06 EigRej= -1.00D+00 NBFU=    51    31
 ExpMin= 1.52D-01 ExpMax= 1.28D+05 ExpMxC= 1.24D+03 IAcc=3 IRadAn=         5 AccDes= 0.00D+00
 Harris functional with IExCor=  419 and IRadAn=       5 diagonalized for initial guess.
 HarFok:  IExCor=  419 AccDes= 0.00D+00 IRadAn=         5 IDoV= 1 UseB2=F ITyADJ=14
 ICtDFT=  3500011 ScaDFX=  1.000000  1.000000  1.000000  1.000000
 FoFCou: FMM=F IPFlag=           0 FMFlag=      100000 FMFlg1=           0
         NFxFlg=           0 DoJE=T BraDBF=F KetDBF=T FulRan=T
         wScrn=  0.000000 ICntrl=       500 IOpCl=  0 I1Cent=   200000004 NGrid=           0
         NMat0=    1 NMatS0=      1 NMatT0=    0 NMatD0=    1 NMtDS0=    0 NMtDT0=    0
 Petite list used in FoFCou.
 Initial guess orbital symmetries:
       Occupied  (A1) (E) (E) (A1) (A1) (E) (E) (A1) (E) (E) (A1)
                 (E) (E) (A1) (A2) (E) (E) (A1) (A1) (E) (E) (A1)
                 (A1) (E) (E) (E) (E) (A1) (E) (E) (E) (E) (A2)
       Virtual   (A1) (E) (E) (A1) (E) (E) (A1) (E) (E) (A1) (A1)
                 (E) (E) (A1) (E) (E) (A2) (E) (E) (E) (E) (A1)
                 (A2) (E) (E) (E) (E) (A2) (A1) (E) (E) (A1) (E)
                 (E) (A1) (E) (E) (A1) (E) (E) (E) (E) (A1) (A1)
                 (E) (E) (E) (E) (A1)
 The electronic state of the initial guess is 1-A1.
 Keep R1 ints in memory in symmetry-blocked form, NReq=9441259.
 Requested convergence on RMS density matrix=1.00D-08 within 128 cycles.
 Requested convergence on MAX density matrix=1.00D-06.
 Requested convergence on             energy=1.00D-06.
 No special actions if energy rises.
 Integral accuracy reduced to 1.0D-05 until final iterations.
 Initial convergence to 1.0D-05 achieved.  Increase integral accuracy.
 SCF Done:  E(RB2PLYP) =  -1517.75334113     A.U. after   12 cycles
            NFock= 12  Conv=0.27D-08     -V/T= 2.0014
 DoSCS=T DFT=T ScalE2(SS,OS)=  0.270000  0.270000
 ExpMin= 1.52D-01 ExpMax= 1.28D+05 ExpMxC= 1.24D+03 IAcc=3 IRadAn=         5 AccDes= 0.00D+00
 HarFok:  IExCor=  205 AccDes= 0.00D+00 IRadAn=         5 IDoV=-2 UseB2=F ITyADJ=14
 ICtDFT= 12500011 ScaDFX=  1.000000  1.000000  1.000000  1.000000
 Range of M.O.s used for correlation:    18    82
 NBasis=    82 NAE=    33 NBE=    33 NFC=    17 NFV=     0
 NROrb=     65 NOA=    16 NOB=    16 NVA=    49 NVB=    49
 DoSCS=T DFT=T ScalE2(SS,OS)=  0.270000  0.270000
 Disk-based method using ON**2 memory for 16 occupieds at a time.
 Permanent disk used for amplitudes=     3235617 words.
 Estimated scratch disk usage=    14214666 words.
 Actual    scratch disk usage=    13428746 words.
 JobTyp=1 Pass  1:  I=  18 to  33 NPSUse=  4 ParTrn=T ParDer=T DoDerP=T.
 (rs|ai) integrals will be sorted in core.
 Spin components of T(2) and E(2):
     alpha-alpha T2 =       0.5268158487D-01 E2=     -0.3377416200D-01
     alpha-beta  T2 =       0.2672768634D+00 E2=     -0.1745079394D+00
     beta-beta   T2 =       0.5268158487D-01 E2=     -0.3377416200D-01
 E2(B2PLYP) =    -0.2420562633D+00 E(B2PLYP) =    -0.15179953973931D+04
 G2DrvN: will do     6 centers at a time, making    1 passes.
 Calling FoFCou, ICntrl=  3107 FMM=F I1Cent=   0 AccDes= 0.00D+00.
 End of G2Drv F.D. properties file   721 does not exist.
 End of G2Drv F.D. properties file   722 does not exist.
 End of G2Drv F.D. properties file   788 does not exist.
          IDoAtm=11111
          Differentiating once with respect to electric field.
                with respect to dipole field.
          Differentiating once with respect to nuclear coordinates.
 Keep R1 ints in memory in symmetry-blocked form, NReq=9431972.
          There are    18 degrees of freedom in the 1st order CPHF.  IDoFFX=6 NUNeed=    18.
     15 vectors produced by pass  0 Test12= 8.98D-15 5.56D-09 XBig12= 2.01D+01 1.83D+00.
 AX will form    15 AO Fock derivatives at one time.
     15 vectors produced by pass  1 Test12= 8.98D-15 5.56D-09 XBig12= 1.37D+00 3.40D-01.
     15 vectors produced by pass  2 Test12= 8.98D-15 5.56D-09 XBig12= 7.05D-02 6.97D-02.
     15 vectors produced by pass  3 Test12= 8.98D-15 5.56D-09 XBig12= 3.59D-03 1.29D-02.
     15 vectors produced by pass  4 Test12= 8.98D-15 5.56D-09 XBig12= 2.71D-05 1.55D-03.
     15 vectors produced by pass  5 Test12= 8.98D-15 5.56D-09 XBig12= 9.35D-08 7.91D-05.
     15 vectors produced by pass  6 Test12= 8.98D-15 5.56D-09 XBig12= 3.65D-10 4.14D-06.
      4 vectors produced by pass  7 Test12= 8.98D-15 5.56D-09 XBig12= 1.17D-12 2.02D-07.
      3 vectors produced by pass  8 Test12= 8.98D-15 5.56D-09 XBig12= 3.99D-15 1.23D-08.
 InvSVY:  IOpt=1 It=  1 EMax= 8.88D-16
 Solved reduced A of dimension   112 with    15 vectors.
 End of Minotr F.D. properties file   721 does not exist.
 End of Minotr F.D. properties file   722 does not exist.
 End of Minotr F.D. properties file   788 does not exist.
 MDV=   104857600.
 DoSCS=T DFT=T ScalE2(SS,OS)=  0.270000  0.270000
 Form MO integral derivatives with frozen-active canonical formalism.
 Discarding MO integrals.
 Reordered first order wavefunction length =      5229378
 In DefCFB: NBatch=  1 ICI= 33 ICA= 49 LFMax= 25
            Large arrays: LIAPS=    46142712 LIARS=    18710307 words.
 Semi-Direct transformation.
 ModeAB=           4 MOrb=            33 LenV=     104496558
 LASXX=      6130641 LTotXX=     6130641 LenRXX=    12635238
 LTotAB=     6504597 MaxLAS=     7084308 LenRXY=           0
 NonZer=    18765879 LenScr=    28927488 LnRSAI=     7084308
 LnScr1=    11381760 LExtra=           0 Total=     60028794
 MaxDsk=          -1 SrtSym=           T ITran=            4
 JobTyp=0 Pass  1:  I=   1 to  33.
 (rs|ai) integrals will be sorted in core.
 DoSCS=T DFT=T ScalE2(SS,OS)=  0.270000  0.270000
 Spin components of T(2) and E(2):
     alpha-alpha T2 =       0.5268158487D-01 E2=     -0.3377416200D-01
     alpha-beta  T2 =       0.2672768634D+00 E2=     -0.1745079394D+00
     beta-beta   T2 =       0.5268158487D-01 E2=     -0.3377416200D-01
 E2(B2PLYP) =    -0.2420562633D+00 E(B2PLYP) =    -0.15179953973931D+04
          IDoAtm=11111
          Differentiating once with respect to electric field.
                with respect to dipole field.
          Differentiating once with respect to nuclear coordinates.
 Keep R1 ints in memory in symmetry-blocked form, NReq=9444581.
          There are     1 degrees of freedom in the 1st order CPHF.  IDoFFX=0 NUNeed=     1.
 LinEq1:  Iter=  0 NonCon=     1 RMS=2.34D-03 Max=3.57D-02 NDo=     1
 AX will form     1 AO Fock derivatives at one time.
 LinEq1:  Iter=  1 NonCon=     1 RMS=1.13D-03 Max=1.18D-02 NDo=     1
 LinEq1:  Iter=  2 NonCon=     1 RMS=3.39D-04 Max=5.85D-03 NDo=     1
 LinEq1:  Iter=  3 NonCon=     1 RMS=1.21D-04 Max=1.41D-03 NDo=     1
 LinEq1:  Iter=  4 NonCon=     1 RMS=5.42D-05 Max=6.57D-04 NDo=     1
 LinEq1:  Iter=  5 NonCon=     1 RMS=7.96D-06 Max=7.98D-05 NDo=     1
 LinEq1:  Iter=  6 NonCon=     1 RMS=1.77D-06 Max=2.32D-05 NDo=     1
 LinEq1:  Iter=  7 NonCon=     1 RMS=4.02D-07 Max=5.34D-06 NDo=     1
 LinEq1:  Iter=  8 NonCon=     1 RMS=8.01D-08 Max=1.01D-06 NDo=     1
 LinEq1:  Iter=  9 NonCon=     1 RMS=2.04D-08 Max=2.05D-07 NDo=     1
 LinEq1:  Iter= 10 NonCon=     1 RMS=4.81D-09 Max=5.26D-08 NDo=     1
 LinEq1:  Iter= 11 NonCon=     1 RMS=7.75D-10 Max=1.30D-08 NDo=     1
 LinEq1:  Iter= 12 NonCon=     1 RMS=1.06D-10 Max=1.13D-09 NDo=     1
 LinEq1:  Iter= 13 NonCon=     0 RMS=1.11D-11 Max=8.82D-11 NDo=     1
 Linear equations converged to 1.000D-10 1.000D-09 after    13 iterations.
 End of Minotr F.D. properties file   721 does not exist.
 End of Minotr F.D. properties file   722 does not exist.
 End of Minotr F.D. properties file   788 does not exist.
 Symmetrizing basis deriv contribution to polar:
 IMax=3 JMax=2 DiffMx= 0.00D+00
 G2DrvN: will do     6 centers at a time, making    1 passes.
 Calling FoFCou, ICntrl=  3107 FMM=F I1Cent=   0 AccDes= 0.00D+00.
 End of G2Drv F.D. properties file   721 does not exist.
 End of G2Drv F.D. properties file   722 does not exist.
 End of G2Drv F.D. properties file   788 does not exist.
 DoSCS=T DFT=T ScalE2(SS,OS)=  0.270000  0.270000
 R2 and R3 integrals will be kept in memory, NReq=    15477412.
 DD1Dir will call FoFMem   1 times, MxPair=      1650
 NAB=   561 NAA=   528 NBB=     0.
 Discarding MO integrals.

 **********************************************************************

            Population analysis using the SCF Density.

 **********************************************************************

 Orbital symmetries:
       Occupied  (E) (E) (A1) (A1) (A1) (E) (E) (A1) (E) (E) (A1)
                 (E) (E) (A1) (A2) (E) (E) (A1) (A1) (E) (E) (A1)
                 (A1) (E) (E) (E) (E) (A1) (E) (E) (E) (E) (A2)
       Virtual   (A1) (E) (E) (A1) (E) (E) (A1) (E) (E) (A1) (A1)
                 (E) (E) (A1) (E) (E) (A2) (E) (E) (E) (E) (A1)
                 (A2) (E) (E) (E) (E) (A2) (A1) (A1) (E) (E) (E)
                 (E) (A1) (E) (E) (A1) (E) (E) (E) (E) (A1) (A1)
                 (E) (E) (E) (E) (A1)
 The electronic state is 1-A1.
 Alpha  occ. eigenvalues -- -102.95742-102.95742-102.95742 -25.42755 -10.90057
 Alpha  occ. eigenvalues --   -9.95558  -9.95558  -9.95551  -7.59579  -7.59579
 Alpha  occ. eigenvalues --   -7.59579  -7.58762  -7.58762  -7.58762  -7.58755
 Alpha  occ. eigenvalues --   -7.58755  -7.58755  -1.44666  -1.07401  -0.97611
 Alpha  occ. eigenvalues --   -0.97611  -0.76123  -0.63363  -0.62782  -0.62782
 Alpha  occ. eigenvalues --   -0.50653  -0.50653  -0.43763  -0.42617  -0.42617
 Alpha  occ. eigenvalues --   -0.39522  -0.39522  -0.38064
 Alpha virt. eigenvalues --    0.01491   0.07902   0.07902   0.16217   0.47819
 Alpha virt. eigenvalues --    0.47819   0.52838   0.53662   0.53662   0.54788
 Alpha virt. eigenvalues --    0.57277   0.58259   0.58259   0.60658   0.62789
 Alpha virt. eigenvalues --    0.62789   0.64712   0.66836   0.66836   0.77318
 Alpha virt. eigenvalues --    0.77318   0.78342   0.80194   0.81401   0.81401
 Alpha virt. eigenvalues --    0.86088   0.86088   0.92160   0.95932   1.07715
 Alpha virt. eigenvalues --    1.08337   1.08337   1.23423   1.23423   1.29446
 Alpha virt. eigenvalues --    1.46571   1.46571   1.47810   1.48336   1.48336
 Alpha virt. eigenvalues --    1.83447   1.83447   1.86076   2.56197   3.69383
 Alpha virt. eigenvalues --    3.69383   3.88986   3.88986   4.16148
          Condensed to atoms (all electrons):
               1          2          3          4          5
     1  C    4.724586   0.323125   0.278413   0.278413   0.278413
     2  F    0.323125   8.974554  -0.040596  -0.040596  -0.040596
     3  Cl   0.278413  -0.040596  16.897289  -0.077360  -0.077360
     4  Cl   0.278413  -0.040596  -0.077360  16.897289  -0.077360
     5  Cl   0.278413  -0.040596  -0.077360  -0.077360  16.897289
 Mulliken charges:
               1
     1  C    0.117051
     2  F   -0.175891
     3  Cl   0.019614
     4  Cl   0.019614
     5  Cl   0.019614
 Sum of Mulliken charges =  -0.00000
 Mulliken charges with hydrogens summed into heavy atoms:
               1
     1  C    0.117051
     2  F   -0.175891
     3  Cl   0.019614
     4  Cl   0.019614
     5  Cl   0.019614
 APT charges:
               1
     1  C    1.638159
     2  F   -0.587081
     3  Cl  -0.350356
     4  Cl  -0.350361
     5  Cl  -0.350361
 Sum of APT charges =  -0.00000
 APT charges with hydrogens summed into heavy atoms:
               1
     1  C    1.638159
     2  F   -0.587081
     3  Cl  -0.350356
     4  Cl  -0.350361
     5  Cl  -0.350361
 Electronic spatial extent (au):  <R**2>=            723.7186
 Charge=             -0.0000 electrons
 Dipole moment (field-independent basis, Debye):
    X=             -0.0000    Y=             -0.0000    Z=             -0.5040  Tot=              0.5040
 Quadrupole moment (field-independent basis, Debye-Ang):
   XX=            -46.7538   YY=            -46.7538   ZZ=            -48.8850
   XY=              0.0000   XZ=              0.0000   YZ=              0.0000
 Traceless Quadrupole moment (field-independent basis, Debye-Ang):
   XX=              0.7104   YY=              0.7104   ZZ=             -1.4208
   XY=              0.0000   XZ=              0.0000   YZ=              0.0000
 Octapole moment (field-independent basis, Debye-Ang**2):
  XXX=             -0.0000  YYY=              4.2407  ZZZ=              6.1717  XYY=              0.0000
  XXY=             -4.2407  XXZ=              0.4285  XZZ=              0.0000  YZZ=              0.0000
  YYZ=              0.4285  XYZ=              0.0000
 Hexadecapole moment (field-independent basis, Debye-Ang**3):
 XXXX=           -342.1692 YYYY=           -342.1692 ZZZZ=           -147.6723 XXXY=              0.0000
 XXXZ=              0.0000 YYYX=              0.0000 YYYZ=             -4.9075 ZZZX=             -0.0000
 ZZZY=             -0.0000 XXYY=           -114.0564 XXZZ=            -82.8628 YYZZ=            -82.8628
 XXYZ=              4.9075 YYXZ=             -0.0000 ZZXY=              0.0000
 N-N= 3.647242255392D+02 E-N=-4.338391720722D+03  KE= 1.515648550352D+03
 Symmetry A'   KE= 1.001798797580D+03
 Symmetry A"   KE= 5.138497527727D+02
  Exact polarizability:      44.598       0.000      44.598      -0.000       0.000      28.304
 Approx polarizability:      52.435      -0.000      52.435       0.000      -0.000      37.446
 Calling FoFJK, ICntrl=  10100127 FMM=F ISym2X=1 I1Cent= 0 IOpClX= 0 NMat=1 NMatS=1 NMatT=0.
 ***** Axes restored to original set *****
 -------------------------------------------------------------------
 Center     Atomic                   Forces (Hartrees/Bohr)
 Number     Number              X              Y              Z
 -------------------------------------------------------------------
      1        6          -0.000000135   -0.000000000    0.009877425
      2        9           0.000001264    0.000000000   -0.011842543
      3       17           0.003609818    0.000000000    0.000655128
      4       17          -0.001805474    0.003128542    0.000654995
      5       17          -0.001805474   -0.003128542    0.000654995
 -------------------------------------------------------------------
 Cartesian Forces:  Max     0.011842543 RMS     0.004306757
 -----------------------------------------------------------------------------------------------
                       Internal Coordinate Forces (Hartree/Bohr or radian)
  Cent   Atom   N1       Length/X         N2         Alpha/Y        N3         Beta/Z          J
 -----------------------------------------------------------------------------------------------
      1  C 
      2  F        1  -0.011843(     1)
      3  Cl       1   0.003208(     2)      2  -0.005973(     5)
      4  Cl       1   0.003210(     3)      2  -0.005975(     6)      3   0.000002(     8)     0
      5  Cl       1   0.003210(     4)      2  -0.005975(     7)      3  -0.000002(     9)     0
 -----------------------------------------------------------------------------------------------
 Internal  Forces:  Max     0.011842543 RMS     0.005559847

 GradGradGradGradGradGradGradGradGradGradGradGradGradGradGradGradGradGrad
 Berny optimization.
 Search for a local minimum.
 Step number   1 out of a maximum of   20
 All quantities printed in internal units (Hartrees-Bohrs-Radians)
 Second derivative matrix not updated -- analytic derivatives used.
 The second derivative matrix:
                          r2        r3        a3        r4        a4
           r2           0.34198
           r3           0.03478   0.21211
           a3           0.06410   0.00270   0.42350
           r4           0.03478   0.02778  -0.02923   0.21210
           a4           0.06410  -0.02923   0.11019   0.00270   0.42350
           d4          -0.00000  -0.05318   0.07478  -0.00001   0.00001
           r5           0.03478   0.02778  -0.02923   0.02778  -0.02923
           a5           0.06410  -0.02923   0.11019  -0.02923   0.11019
           d5           0.00000   0.05318  -0.07478  -0.05318   0.07478
                          d4        r5        a5        d5
           d4           0.39913
           r5           0.05318   0.21210
           a5          -0.07478   0.00270   0.42350
           d5          -0.19962   0.00001  -0.00001   0.39913
 ITU=  0
     Eigenvalues ---    0.11054   0.14100   0.20806   0.23605   0.29474
     Eigenvalues ---    0.35055   0.36223   0.66064   0.68322
 RFO step:  Lambda=-6.66995084D-04 EMin= 1.10543133D-01
 Linear search not attempted -- first point.
 Variable       Old X    -DE/DX   Delta X   Delta X   Delta X     New X
                                 (Linear)    (Quad)   (Total)
    r2        2.57078  -0.01184   0.00000  -0.03704  -0.03704   2.53375
    r3        3.35407   0.00321   0.00000   0.01588   0.01588   3.36995
    a3        1.89805  -0.00597   0.00000  -0.00421  -0.00421   1.89384
    r4        3.35407   0.00321   0.00000   0.01589   0.01589   3.36996
    a4        1.89805  -0.00597   0.00000  -0.00421  -0.00421   1.89383
    d4        4.18879   0.00000   0.00000   0.00000   0.00000   4.18879
    r5        3.35407   0.00321   0.00000   0.01589   0.01589   3.36996
    a5        1.89805  -0.00597   0.00000  -0.00421  -0.00421   1.89383
    d5        2.09440  -0.00000   0.00000  -0.00000  -0.00000   2.09439
         Item               Value     Threshold  Converged?
 Maximum Force            0.011843     0.000002     NO 
 RMS     Force            0.005560     0.000001     NO 
 Maximum Displacement     0.037036     0.000006     NO 
 RMS     Displacement     0.015570     0.000004     NO 
 Predicted change in Energy=-3.342268D-04
 GradGradGradGradGradGradGradGradGradGradGradGradGradGradGradGradGradGrad

 ---------------------------------------------------------------------------------------------------
                            Z-MATRIX (ANGSTROMS AND DEGREES)
   CD    Cent   Atom    N1       Length/X        N2       Alpha/Y        N3        Beta/Z          J
 ---------------------------------------------------------------------------------------------------
      1      1  C 
      2      2  F        1   1.340801(     1)
      3      3  Cl       1   1.783301(     2)      2  108.509(     5)
      4      4  Cl       1   1.783308(     3)      2  108.509(     6)      3  240.000(     8)      0
      5      5  Cl       1   1.783308(     4)      2  108.509(     7)      3  120.000(     9)      0
 ---------------------------------------------------------------------------------------------------
                         Z-Matrix orientation:                         
 ---------------------------------------------------------------------
 Center     Atomic      Atomic             Coordinates (Angstroms)
 Number     Number       Type             X           Y           Z
 ---------------------------------------------------------------------
      1          6           0        0.000000    0.000000    0.000000
      2          9           0        0.000000    0.000000    1.340801
      3         17           0        1.691058    0.000000   -0.566115
      4         17           0       -0.845532    1.464510   -0.566106
      5         17           0       -0.845532   -1.464510   -0.566106
 ---------------------------------------------------------------------
                    Distance matrix (angstroms):
                    1          2          3          4          5
     1  C    0.000000
     2  F    1.340801   0.000000
     3  Cl   1.783301   2.548726   0.000000
     4  Cl   1.783308   2.548726   2.929006   0.000000
     5  Cl   1.783308   2.548726   2.929006   2.929019   0.000000
 Stoichiometry    CCl3F
 Framework group  C1[X(CCl3F)]
 Deg. of freedom     9
 Full point group                 C1      NOp   1
 Omega: Change in point group or standard orientation.

 Old FWG=C03V [C3(C1F1),3SGV(Cl1)]
 New FWG=C01  [X(C1Cl3F1)]
 Largest Abelian subgroup         C1      NOp   1
 Largest concise Abelian subgroup C1      NOp   1
                         Standard orientation:                         
 ---------------------------------------------------------------------
 Center     Atomic      Atomic             Coordinates (Angstroms)
 Number     Number       Type             X           Y           Z
 ---------------------------------------------------------------------
      1          6           0        0.000000    0.000001    0.254611
      2          9           0        0.000000    0.000001    1.595412
      3         17           0       -0.000000    1.691059   -0.311504
      4         17           0       -1.464509   -0.845531   -0.311495
      5         17           0        1.464510   -0.845530   -0.311495
 ---------------------------------------------------------------------
 Rotational constants (GHZ):           2.4144912           2.4144702           1.6845893
 Standard basis: CC-pVDZ (5D, 7F)
 There are    87 symmetry adapted cartesian basis functions of A   symmetry.
 There are    82 symmetry adapted basis functions of A   symmetry.
    82 basis functions,   279 primitive gaussians,    87 cartesian basis functions
    33 alpha electrons       33 beta electrons
       nuclear repulsion energy       364.0528771261 Hartrees.
 NAtoms=    5 NActive=    5 NUniq=    5 SFac= 1.00D+00 NAtFMM=   60 NAOKFM=F Big=F
 Integral buffers will be    131072 words long.
 Regular integral format.
 Two-electron integral symmetry is turned on.
 One-electron integrals computed using PRISM.
 NBasis=    82 RedAO= T EigKep=  1.01D-02  NBF=    82
 NBsUse=    82 1.00D-06 EigRej= -1.00D+00 NBFU=    82
 Initial guess from the checkpoint file:  "checkpoint.chk"
 B after Tr=     0.000000    0.000000   -0.000000
         Rot=    1.000000    0.000001    0.000000   -0.000000 Ang=   0.00 deg.
 ExpMin= 1.52D-01 ExpMax= 1.28D+05 ExpMxC= 1.24D+03 IAcc=3 IRadAn=         5 AccDes= 0.00D+00
 Harris functional with IExCor=  419 and IRadAn=       5 diagonalized for initial guess.
 HarFok:  IExCor=  419 AccDes= 0.00D+00 IRadAn=         5 IDoV= 1 UseB2=F ITyADJ=14
 ICtDFT=  3500011 ScaDFX=  1.000000  1.000000  1.000000  1.000000
 FoFCou: FMM=F IPFlag=           0 FMFlag=      100000 FMFlg1=           0
         NFxFlg=           0 DoJE=T BraDBF=F KetDBF=T FulRan=T
         wScrn=  0.000000 ICntrl=       500 IOpCl=  0 I1Cent=   200000004 NGrid=           0
         NMat0=    1 NMatS0=      1 NMatT0=    0 NMatD0=    1 NMtDS0=    0 NMtDT0=    0
 Petite list used in FoFCou.
 Keep R1 ints in memory in canonical form, NReq=9433254.
 Requested convergence on RMS density matrix=1.00D-08 within 128 cycles.
 Requested convergence on MAX density matrix=1.00D-06.
 Requested convergence on             energy=1.00D-06.
 No special actions if energy rises.
 Integral accuracy reduced to 1.0D-05 until final iterations.
 Initial convergence to 1.0D-05 achieved.  Increase integral accuracy.
 SCF Done:  E(RB2PLYP) =  -1517.75389498     A.U. after   11 cycles
            NFock= 11  Conv=0.23D-08     -V/T= 2.0014
 DoSCS=T DFT=T ScalE2(SS,OS)=  0.270000  0.270000
 ExpMin= 1.52D-01 ExpMax= 1.28D+05 ExpMxC= 1.24D+03 IAcc=3 IRadAn=         5 AccDes= 0.00D+00
 HarFok:  IExCor=  205 AccDes= 0.00D+00 IRadAn=         5 IDoV=-2 UseB2=F ITyADJ=14
 ICtDFT= 12500011 ScaDFX=  1.000000  1.000000  1.000000  1.000000
 Range of M.O.s used for correlation:    18    82
 NBasis=    82 NAE=    33 NBE=    33 NFC=    17 NFV=     0
 NROrb=     65 NOA=    16 NOB=    16 NVA=    49 NVB=    49
 DoSCS=T DFT=T ScalE2(SS,OS)=  0.270000  0.270000
 Disk-based method using ON**2 memory for 16 occupieds at a time.
 Permanent disk used for amplitudes=     3235617 words.
 Estimated scratch disk usage=    21062636 words.
 Actual    scratch disk usage=    19570668 words.
 JobTyp=1 Pass  1:  I=  18 to  33 NPSUse=  4 ParTrn=T ParDer=T DoDerP=T.
 (rs|ai) integrals will be sorted in core.
 Spin components of T(2) and E(2):
     alpha-alpha T2 =       0.5259873103D-01 E2=     -0.3373475297D-01
     alpha-beta  T2 =       0.2672019170D+00 E2=     -0.1743600620D+00
     beta-beta   T2 =       0.5259873103D-01 E2=     -0.3373475297D-01
 E2(B2PLYP) =    -0.2418295679D+00 E(B2PLYP) =    -0.15179957245460D+04
 G2DrvN: will do     6 centers at a time, making    1 passes.
 Calling FoFCou, ICntrl=  3107 FMM=F I1Cent=   0 AccDes= 0.00D+00.
 End of G2Drv F.D. properties file   721 does not exist.
 End of G2Drv F.D. properties file   722 does not exist.
 End of G2Drv F.D. properties file   788 does not exist.
          IDoAtm=11111
          Differentiating once with respect to electric field.
                with respect to dipole field.
          Differentiating once with respect to nuclear coordinates.
 Keep R1 ints in memory in canonical form, NReq=9423942.
          There are    18 degrees of freedom in the 1st order CPHF.  IDoFFX=6 NUNeed=    18.
     15 vectors produced by pass  0 Test12= 8.98D-15 5.56D-09 XBig12= 2.05D+01 1.91D+00.
 AX will form    15 AO Fock derivatives at one time.
     15 vectors produced by pass  1 Test12= 8.98D-15 5.56D-09 XBig12= 1.41D+00 3.39D-01.
     15 vectors produced by pass  2 Test12= 8.98D-15 5.56D-09 XBig12= 7.36D-02 7.24D-02.
     15 vectors produced by pass  3 Test12= 8.98D-15 5.56D-09 XBig12= 3.84D-03 1.29D-02.
     15 vectors produced by pass  4 Test12= 8.98D-15 5.56D-09 XBig12= 3.14D-05 1.70D-03.
     15 vectors produced by pass  5 Test12= 8.98D-15 5.56D-09 XBig12= 1.10D-07 8.59D-05.
     15 vectors produced by pass  6 Test12= 8.98D-15 5.56D-09 XBig12= 4.41D-10 3.79D-06.
      4 vectors produced by pass  7 Test12= 8.98D-15 5.56D-09 XBig12= 1.40D-12 2.32D-07.
      3 vectors produced by pass  8 Test12= 8.98D-15 5.56D-09 XBig12= 4.09D-15 1.16D-08.
 InvSVY:  IOpt=1 It=  1 EMax= 7.77D-16
 Solved reduced A of dimension   112 with    15 vectors.
 End of Minotr F.D. properties file   721 does not exist.
 End of Minotr F.D. properties file   722 does not exist.
 End of Minotr F.D. properties file   788 does not exist.
 MDV=   104857600.
 DoSCS=T DFT=T ScalE2(SS,OS)=  0.270000  0.270000
 Form MO integral derivatives with frozen-active canonical formalism.
 Discarding MO integrals.
 Reordered first order wavefunction length =      5229378
 In DefCFB: NBatch=  1 ICI= 33 ICA= 49 LFMax= 25
            Large arrays: LIAPS=    46142712 LIARS=    18710307 words.
 Semi-Direct transformation.
 ModeAB=           2 MOrb=            33 LenV=     104494964
 LASXX=      6130641 LTotXX=     6130641 LenRXX=     6130641
 LTotAB=     6504597 MaxLAS=    10358568 LenRXY=    10358568
 NonZer=    12261282 LenScr=    19148800 LnRSAI=           0
 LnScr1=           0 LExtra=           0 Total=     35638009
 MaxDsk=          -1 SrtSym=           F ITran=            4
 JobTyp=0 Pass  1:  I=   1 to  33.
 (rs|ai) integrals will be sorted in core.
 SymMOI:  orbitals are not symmetric.
 DoSCS=T DFT=T ScalE2(SS,OS)=  0.270000  0.270000
 Spin components of T(2) and E(2):
     alpha-alpha T2 =       0.5259873103D-01 E2=     -0.3373475297D-01
     alpha-beta  T2 =       0.2672019170D+00 E2=     -0.1743600620D+00
     beta-beta   T2 =       0.5259873103D-01 E2=     -0.3373475297D-01
 E2(B2PLYP) =    -0.2418295679D+00 E(B2PLYP) =    -0.15179957245460D+04
          IDoAtm=11111
          Differentiating once with respect to electric field.
                with respect to dipole field.
          Differentiating once with respect to nuclear coordinates.
 Keep R1 ints in memory in canonical form, NReq=9436551.
          There are     1 degrees of freedom in the 1st order CPHF.  IDoFFX=0 NUNeed=     1.
 LinEq1:  Iter=  0 NonCon=     1 RMS=2.33D-03 Max=3.66D-02 NDo=     1
 AX will form     1 AO Fock derivatives at one time.
 LinEq1:  Iter=  1 NonCon=     1 RMS=1.12D-03 Max=1.10D-02 NDo=     1
 LinEq1:  Iter=  2 NonCon=     1 RMS=3.37D-04 Max=5.57D-03 NDo=     1
 LinEq1:  Iter=  3 NonCon=     1 RMS=1.26D-04 Max=1.48D-03 NDo=     1
 LinEq1:  Iter=  4 NonCon=     1 RMS=5.50D-05 Max=6.72D-04 NDo=     1
 LinEq1:  Iter=  5 NonCon=     1 RMS=8.05D-06 Max=8.52D-05 NDo=     1
 LinEq1:  Iter=  6 NonCon=     1 RMS=1.85D-06 Max=2.65D-05 NDo=     1
 LinEq1:  Iter=  7 NonCon=     1 RMS=4.38D-07 Max=5.97D-06 NDo=     1
 LinEq1:  Iter=  8 NonCon=     1 RMS=8.19D-08 Max=8.77D-07 NDo=     1
 LinEq1:  Iter=  9 NonCon=     1 RMS=1.94D-08 Max=2.17D-07 NDo=     1
 LinEq1:  Iter= 10 NonCon=     1 RMS=4.93D-09 Max=6.19D-08 NDo=     1
 LinEq1:  Iter= 11 NonCon=     1 RMS=8.00D-10 Max=1.23D-08 NDo=     1
 LinEq1:  Iter= 12 NonCon=     1 RMS=1.03D-10 Max=1.12D-09 NDo=     1
 LinEq1:  Iter= 13 NonCon=     0 RMS=1.09D-11 Max=8.56D-11 NDo=     1
 Linear equations converged to 1.000D-10 1.000D-09 after    13 iterations.
 End of Minotr F.D. properties file   721 does not exist.
 End of Minotr F.D. properties file   722 does not exist.
 End of Minotr F.D. properties file   788 does not exist.
 Symmetrizing basis deriv contribution to polar:
 IMax=3 JMax=2 DiffMx= 0.00D+00
 G2DrvN: will do     6 centers at a time, making    1 passes.
 Calling FoFCou, ICntrl=  3107 FMM=F I1Cent=   0 AccDes= 0.00D+00.
 End of G2Drv F.D. properties file   721 does not exist.
 End of G2Drv F.D. properties file   722 does not exist.
 End of G2Drv F.D. properties file   788 does not exist.
 DoSCS=T DFT=T ScalE2(SS,OS)=  0.270000  0.270000
 R2 and R3 integrals will be kept in memory, NReq=    15477412.
 DD1Dir will call FoFMem   1 times, MxPair=      1650
 NAB=   561 NAA=   528 NBB=     0.
 Discarding MO integrals.
 Calling FoFJK, ICntrl=  10100127 FMM=F ISym2X=0 I1Cent= 0 IOpClX= 0 NMat=1 NMatS=1 NMatT=0.
 ***** Axes restored to original set *****
 -------------------------------------------------------------------
 Center     Atomic                   Forces (Hartrees/Bohr)
 Number     Number              X              Y              Z
 -------------------------------------------------------------------
      1        6          -0.000001304    0.000000000   -0.000680785
      2        9           0.000001463    0.000000000    0.000765008
      3       17           0.000143297    0.000000000   -0.000028455
      4       17          -0.000071728    0.000124634   -0.000027884
      5       17          -0.000071728   -0.000124634   -0.000027884
 -------------------------------------------------------------------
 Cartesian Forces:  Max     0.000765008 RMS     0.000272393
 -----------------------------------------------------------------------------------------------
                       Internal Coordinate Forces (Hartree/Bohr or radian)
  Cent   Atom   N1       Length/X         N2         Alpha/Y        N3         Beta/Z          J
 -----------------------------------------------------------------------------------------------
      1  C 
      2  F        1   0.000765(     1)
      3  Cl       1   0.000145(     2)      2  -0.000062(     5)
      4  Cl       1   0.000145(     3)      2  -0.000065(     6)      3   0.000001(     8)     0
      5  Cl       1   0.000145(     4)      2  -0.000065(     7)      3  -0.000001(     9)     0
 -----------------------------------------------------------------------------------------------
 Internal  Forces:  Max     0.000765008 RMS     0.000270941

 GradGradGradGradGradGradGradGradGradGradGradGradGradGradGradGradGradGrad
 Berny optimization.
 Search for a local minimum.
 Step number   2 out of a maximum of   20
 All quantities printed in internal units (Hartrees-Bohrs-Radians)
 Second derivative matrix not updated -- analytic derivatives used.
 DE= -3.27D-04 DEPred=-3.34D-04 R= 9.79D-01
 TightC=F SS=  1.41D+00  RLast= 4.67D-02 DXNew= 5.0454D-01 1.4013D-01
 Trust test= 9.79D-01 RLast= 4.67D-02 DXMaxT set to 3.00D-01
 The second derivative matrix:
                          r2        r3        a3        r4        a4
           r2           0.38676
           r3           0.03624   0.20335
           a3           0.06567   0.00844   0.42352
           r4           0.03624   0.02658  -0.02776   0.20335
           a4           0.06566  -0.02776   0.10536   0.00848   0.42344
           d4          -0.00000  -0.05134   0.07184  -0.00005   0.00005
           r5           0.03624   0.02658  -0.02776   0.02658  -0.02775
           a5           0.06566  -0.02776   0.10536  -0.02775   0.10540
           d5           0.00000   0.05134  -0.07184  -0.05134   0.07187
                          d4        r5        a5        d5
           d4           0.38781
           r5           0.05134   0.20335
           a5          -0.07187   0.00848   0.42344
           d5          -0.19397   0.00005  -0.00005   0.38781
 ITU=  1  0
     Eigenvalues ---    0.10629   0.13425   0.21183   0.23053   0.30065
     Eigenvalues ---    0.35182   0.38602   0.64181   0.67963
 RFO step:  Lambda=-1.20665809D-06 EMin= 1.06288708D-01
 Quintic linear search produced a step of -0.02902.
 Variable       Old X    -DE/DX   Delta X   Delta X   Delta X     New X
                                 (Linear)    (Quad)   (Total)
    r2        2.53375   0.00077   0.00107   0.00102   0.00210   2.53584
    r3        3.36995   0.00014  -0.00046   0.00071   0.00025   3.37020
    a3        1.89384  -0.00006   0.00012  -0.00042  -0.00030   1.89354
    r4        3.36996   0.00015  -0.00046   0.00071   0.00025   3.37021
    a4        1.89383  -0.00006   0.00012  -0.00043  -0.00031   1.89353
    d4        4.18879   0.00000  -0.00000  -0.00000  -0.00000   4.18879
    r5        3.36996   0.00015  -0.00046   0.00071   0.00025   3.37021
    a5        1.89383  -0.00006   0.00012  -0.00043  -0.00031   1.89353
    d5        2.09439  -0.00000   0.00000   0.00000   0.00000   2.09439
         Item               Value     Threshold  Converged?
 Maximum Force            0.000765     0.000002     NO 
 RMS     Force            0.000271     0.000001     NO 
 Maximum Displacement     0.002096     0.000006     NO 
 RMS     Displacement     0.000734     0.000004     NO 
 Predicted change in Energy=-8.669733D-07
 GradGradGradGradGradGradGradGradGradGradGradGradGradGradGradGradGradGrad

 ---------------------------------------------------------------------------------------------------
                            Z-MATRIX (ANGSTROMS AND DEGREES)
   CD    Cent   Atom    N1       Length/X        N2       Alpha/Y        N3        Beta/Z          J
 ---------------------------------------------------------------------------------------------------
      1      1  C 
      2      2  F        1   1.341911(     1)
      3      3  Cl       1   1.783431(     2)      2  108.492(     5)
      4      4  Cl       1   1.783440(     3)      2  108.491(     6)      3  240.000(     8)      0
      5      5  Cl       1   1.783440(     4)      2  108.491(     7)      3  120.000(     9)      0
 ---------------------------------------------------------------------------------------------------
                         Z-Matrix orientation:                         
 ---------------------------------------------------------------------
 Center     Atomic      Atomic             Coordinates (Angstroms)
 Number     Number       Type             X           Y           Z
 ---------------------------------------------------------------------
      1          6           0        0.000000    0.000000    0.000000
      2          9           0        0.000000    0.000000    1.341911
      3         17           0        1.691350    0.000000   -0.565650
      4         17           0       -0.845681    1.464768   -0.565629
      5         17           0       -0.845681   -1.464768   -0.565629
 ---------------------------------------------------------------------
                    Distance matrix (angstroms):
                    1          2          3          4          5
     1  C    0.000000
     2  F    1.341911   0.000000
     3  Cl   1.783431   2.549403   0.000000
     4  Cl   1.783440   2.549397   2.929517   0.000000
     5  Cl   1.783440   2.549397   2.929517   2.929536   0.000000
 Stoichiometry    CCl3F
 Framework group  C1[X(CCl3F)]
 Deg. of freedom     9
 Full point group                 C1      NOp   1
 Largest Abelian subgroup         C1      NOp   1
 Largest concise Abelian subgroup C1      NOp   1
                         Standard orientation:                         
 ---------------------------------------------------------------------
 Center     Atomic      Atomic             Coordinates (Angstroms)
 Number     Number       Type             X           Y           Z
 ---------------------------------------------------------------------
      1          6           0        0.000000    0.000003    0.254094
      2          9           0        0.000000    0.000003    1.596005
      3         17           0        0.000003    1.691353   -0.311556
      4         17           0       -1.464769   -0.845676   -0.311534
      5         17           0        1.464766   -0.845680   -0.311534
 ---------------------------------------------------------------------
 Rotational constants (GHZ):           2.4134780           2.4134492           1.6839990
 Standard basis: CC-pVDZ (5D, 7F)
 There are    87 symmetry adapted cartesian basis functions of A   symmetry.
 There are    82 symmetry adapted basis functions of A   symmetry.
    82 basis functions,   279 primitive gaussians,    87 cartesian basis functions
    33 alpha electrons       33 beta electrons
       nuclear repulsion energy       363.9759993834 Hartrees.
 NAtoms=    5 NActive=    5 NUniq=    5 SFac= 1.00D+00 NAtFMM=   60 NAOKFM=F Big=F
 Integral buffers will be    131072 words long.
 Regular integral format.
 Two-electron integral symmetry is turned on.
 One-electron integrals computed using PRISM.
 NBasis=    82 RedAO= T EigKep=  1.01D-02  NBF=    82
 NBsUse=    82 1.00D-06 EigRej= -1.00D+00 NBFU=    82
 Initial guess from the checkpoint file:  "checkpoint.chk"
 B after Tr=     0.000000   -0.000000   -0.000000
         Rot=    1.000000    0.000002    0.000000    0.000001 Ang=   0.00 deg.
 Keep R1 ints in memory in canonical form, NReq=9433254.
 Requested convergence on RMS density matrix=1.00D-08 within 128 cycles.
 Requested convergence on MAX density matrix=1.00D-06.
 Requested convergence on             energy=1.00D-06.
 No special actions if energy rises.
 SCF Done:  E(RB2PLYP) =  -1517.75386882     A.U. after    8 cycles
            NFock=  8  Conv=0.41D-08     -V/T= 2.0014
 DoSCS=T DFT=T ScalE2(SS,OS)=  0.270000  0.270000
 ExpMin= 1.52D-01 ExpMax= 1.28D+05 ExpMxC= 1.24D+03 IAcc=3 IRadAn=         5 AccDes= 0.00D+00
 HarFok:  IExCor=  205 AccDes= 0.00D+00 IRadAn=         5 IDoV=-2 UseB2=F ITyADJ=14
 ICtDFT= 12500011 ScaDFX=  1.000000  1.000000  1.000000  1.000000
 Range of M.O.s used for correlation:    18    82
 NBasis=    82 NAE=    33 NBE=    33 NFC=    17 NFV=     0
 NROrb=     65 NOA=    16 NOB=    16 NVA=    49 NVB=    49
 DoSCS=T DFT=T ScalE2(SS,OS)=  0.270000  0.270000
 Disk-based method using ON**2 memory for 16 occupieds at a time.
 Permanent disk used for amplitudes=     3235617 words.
 Estimated scratch disk usage=    21062636 words.
 Actual    scratch disk usage=    19570668 words.
 JobTyp=1 Pass  1:  I=  18 to  33 NPSUse=  4 ParTrn=T ParDer=T DoDerP=T.
 (rs|ai) integrals will be sorted in core.
 Spin components of T(2) and E(2):
     alpha-alpha T2 =       0.5261287689D-01 E2=     -0.3373681771D-01
     alpha-beta  T2 =       0.2672958546D+00 E2=     -0.1743829576D+00
     beta-beta   T2 =       0.5261287689D-01 E2=     -0.3373681771D-01
 E2(B2PLYP) =    -0.2418565930D+00 E(B2PLYP) =    -0.15179957254136D+04
 G2DrvN: will do     6 centers at a time, making    1 passes.
 Calling FoFCou, ICntrl=  3107 FMM=F I1Cent=   0 AccDes= 0.00D+00.
 End of G2Drv F.D. properties file   721 does not exist.
 End of G2Drv F.D. properties file   722 does not exist.
 End of G2Drv F.D. properties file   788 does not exist.
          IDoAtm=11111
          Differentiating once with respect to electric field.
                with respect to dipole field.
          Differentiating once with respect to nuclear coordinates.
 Keep R1 ints in memory in canonical form, NReq=9423942.
          There are    18 degrees of freedom in the 1st order CPHF.  IDoFFX=6 NUNeed=    18.
     15 vectors produced by pass  0 Test12= 8.98D-15 5.56D-09 XBig12= 2.05D+01 1.91D+00.
 AX will form    15 AO Fock derivatives at one time.
     15 vectors produced by pass  1 Test12= 8.98D-15 5.56D-09 XBig12= 1.41D+00 3.39D-01.
     15 vectors produced by pass  2 Test12= 8.98D-15 5.56D-09 XBig12= 7.38D-02 7.25D-02.
     15 vectors produced by pass  3 Test12= 8.98D-15 5.56D-09 XBig12= 3.84D-03 1.29D-02.
     15 vectors produced by pass  4 Test12= 8.98D-15 5.56D-09 XBig12= 3.13D-05 1.69D-03.
     15 vectors produced by pass  5 Test12= 8.98D-15 5.56D-09 XBig12= 1.09D-07 8.59D-05.
     15 vectors produced by pass  6 Test12= 8.98D-15 5.56D-09 XBig12= 4.39D-10 3.80D-06.
      4 vectors produced by pass  7 Test12= 8.98D-15 5.56D-09 XBig12= 1.40D-12 2.31D-07.
      3 vectors produced by pass  8 Test12= 8.98D-15 5.56D-09 XBig12= 4.08D-15 1.16D-08.
 InvSVY:  IOpt=1 It=  1 EMax= 8.88D-16
 Solved reduced A of dimension   112 with    15 vectors.
 End of Minotr F.D. properties file   721 does not exist.
 End of Minotr F.D. properties file   722 does not exist.
 End of Minotr F.D. properties file   788 does not exist.
 MDV=   104857600.
 DoSCS=T DFT=T ScalE2(SS,OS)=  0.270000  0.270000
 Form MO integral derivatives with frozen-active canonical formalism.
 Discarding MO integrals.
 Reordered first order wavefunction length =      5229378
 In DefCFB: NBatch=  1 ICI= 33 ICA= 49 LFMax= 25
            Large arrays: LIAPS=    46142712 LIARS=    18710307 words.
 Semi-Direct transformation.
 ModeAB=           2 MOrb=            33 LenV=     104495006
 LASXX=      6130641 LTotXX=     6130641 LenRXX=     6130641
 LTotAB=     6504597 MaxLAS=    10358568 LenRXY=    10358568
 NonZer=    12261282 LenScr=    19148800 LnRSAI=           0
 LnScr1=           0 LExtra=           0 Total=     35638009
 MaxDsk=          -1 SrtSym=           F ITran=            4
 JobTyp=0 Pass  1:  I=   1 to  33.
 (rs|ai) integrals will be sorted in core.
 SymMOI:  orbitals are not symmetric.
 DoSCS=T DFT=T ScalE2(SS,OS)=  0.270000  0.270000
 Spin components of T(2) and E(2):
     alpha-alpha T2 =       0.5261287689D-01 E2=     -0.3373681771D-01
     alpha-beta  T2 =       0.2672958546D+00 E2=     -0.1743829576D+00
     beta-beta   T2 =       0.5261287689D-01 E2=     -0.3373681771D-01
 E2(B2PLYP) =    -0.2418565930D+00 E(B2PLYP) =    -0.15179957254136D+04
          IDoAtm=11111
          Differentiating once with respect to electric field.
                with respect to dipole field.
          Differentiating once with respect to nuclear coordinates.
 Keep R1 ints in memory in canonical form, NReq=9436551.
          There are     1 degrees of freedom in the 1st order CPHF.  IDoFFX=0 NUNeed=     1.
 LinEq1:  Iter=  0 NonCon=     1 RMS=2.33D-03 Max=3.65D-02 NDo=     1
 AX will form     1 AO Fock derivatives at one time.
 LinEq1:  Iter=  1 NonCon=     1 RMS=1.12D-03 Max=1.10D-02 NDo=     1
 LinEq1:  Iter=  2 NonCon=     1 RMS=3.38D-04 Max=5.59D-03 NDo=     1
 LinEq1:  Iter=  3 NonCon=     1 RMS=1.26D-04 Max=1.48D-03 NDo=     1
 LinEq1:  Iter=  4 NonCon=     1 RMS=5.50D-05 Max=6.73D-04 NDo=     1
 LinEq1:  Iter=  5 NonCon=     1 RMS=8.07D-06 Max=8.52D-05 NDo=     1
 LinEq1:  Iter=  6 NonCon=     1 RMS=1.86D-06 Max=2.65D-05 NDo=     1
 LinEq1:  Iter=  7 NonCon=     1 RMS=4.39D-07 Max=5.99D-06 NDo=     1
 LinEq1:  Iter=  8 NonCon=     1 RMS=8.18D-08 Max=8.77D-07 NDo=     1
 LinEq1:  Iter=  9 NonCon=     1 RMS=1.94D-08 Max=2.17D-07 NDo=     1
 LinEq1:  Iter= 10 NonCon=     1 RMS=4.93D-09 Max=6.18D-08 NDo=     1
 LinEq1:  Iter= 11 NonCon=     1 RMS=8.03D-10 Max=1.24D-08 NDo=     1
 LinEq1:  Iter= 12 NonCon=     1 RMS=1.04D-10 Max=1.13D-09 NDo=     1
 LinEq1:  Iter= 13 NonCon=     0 RMS=1.10D-11 Max=8.62D-11 NDo=     1
 Linear equations converged to 1.000D-10 1.000D-09 after    13 iterations.
 End of Minotr F.D. properties file   721 does not exist.
 End of Minotr F.D. properties file   722 does not exist.
 End of Minotr F.D. properties file   788 does not exist.
 Symmetrizing basis deriv contribution to polar:
 IMax=3 JMax=2 DiffMx= 0.00D+00
 G2DrvN: will do     6 centers at a time, making    1 passes.
 Calling FoFCou, ICntrl=  3107 FMM=F I1Cent=   0 AccDes= 0.00D+00.
 End of G2Drv F.D. properties file   721 does not exist.
 End of G2Drv F.D. properties file   722 does not exist.
 End of G2Drv F.D. properties file   788 does not exist.
 DoSCS=T DFT=T ScalE2(SS,OS)=  0.270000  0.270000
 R2 and R3 integrals will be kept in memory, NReq=    15477412.
 DD1Dir will call FoFMem   1 times, MxPair=      1650
 NAB=   561 NAA=   528 NBB=     0.
 Discarding MO integrals.
 Calling FoFJK, ICntrl=  10100127 FMM=F ISym2X=0 I1Cent= 0 IOpClX= 0 NMat=1 NMatS=1 NMatT=0.
 ***** Axes restored to original set *****
 -------------------------------------------------------------------
 Center     Atomic                   Forces (Hartrees/Bohr)
 Number     Number              X              Y              Z
 -------------------------------------------------------------------
      1        6          -0.000002218   -0.000000000    0.000004148
      2        9           0.000002223    0.000000000   -0.000009744
      3       17          -0.000008363   -0.000000000    0.000001860
      4       17           0.000004179   -0.000007242    0.000001868
      5       17           0.000004179    0.000007242    0.000001868
 -------------------------------------------------------------------
 Cartesian Forces:  Max     0.000009744 RMS     0.000004776
 -----------------------------------------------------------------------------------------------
                       Internal Coordinate Forces (Hartree/Bohr or radian)
  Cent   Atom   N1       Length/X         N2         Alpha/Y        N3         Beta/Z          J
 -----------------------------------------------------------------------------------------------
      1  C 
      2  F        1  -0.000010(     1)
      3  Cl       1  -0.000009(     2)      2   0.000003(     5)
      4  Cl       1  -0.000009(     3)      2   0.000003(     6)      3  -0.000000(     8)     0
      5  Cl       1  -0.000009(     4)      2   0.000003(     7)      3   0.000000(     9)     0
 -----------------------------------------------------------------------------------------------
 Internal  Forces:  Max     0.000009744 RMS     0.000006141

 GradGradGradGradGradGradGradGradGradGradGradGradGradGradGradGradGradGrad
 Berny optimization.
 Search for a local minimum.
 Step number   3 out of a maximum of   20
 All quantities printed in internal units (Hartrees-Bohrs-Radians)
 Second derivative matrix not updated -- analytic derivatives used.
 DE= -8.68D-07 DEPred=-8.67D-07 R= 1.00D+00
 Trust test= 1.00D+00 RLast= 2.20D-03 DXMaxT set to 3.00D-01
 The second derivative matrix:
                          r2        r3        a3        r4        a4
           r2           0.38403
           r3           0.03616   0.20311
           a3           0.06559   0.00844   0.42299
           r4           0.03616   0.02655  -0.02771   0.20310
           a4           0.06557  -0.02771   0.10521   0.00847   0.42291
           d4          -0.00000  -0.05128   0.07173  -0.00005   0.00005
           r5           0.03616   0.02655  -0.02771   0.02655  -0.02770
           a5           0.06557  -0.02771   0.10521  -0.02770   0.10525
           d5           0.00000   0.05128  -0.07173  -0.05129   0.07176
                          d4        r5        a5        d5
           d4           0.38752
           r5           0.05129   0.20310
           a5          -0.07176   0.00847   0.42291
           d5          -0.19383   0.00005  -0.00005   0.38752
 ITU=  0  1  0
     Eigenvalues ---    0.10621   0.13412   0.21118   0.23030   0.30031
     Eigenvalues ---    0.35140   0.38397   0.64123   0.67847
 RFO step:  Lambda= 0.00000000D+00 EMin= 1.06211573D-01
 Quintic linear search produced a step of -0.01644.
 Variable       Old X    -DE/DX   Delta X   Delta X   Delta X     New X
                                 (Linear)    (Quad)   (Total)
    r2        2.53584  -0.00001  -0.00003   0.00002  -0.00002   2.53582
    r3        3.37020  -0.00001  -0.00000  -0.00003  -0.00003   3.37017
    a3        1.89354   0.00000   0.00000  -0.00000   0.00000   1.89354
    r4        3.37021  -0.00001  -0.00000  -0.00003  -0.00003   3.37018
    a4        1.89353   0.00000   0.00001  -0.00000   0.00000   1.89353
    d4        4.18879  -0.00000   0.00000  -0.00000  -0.00000   4.18879
    r5        3.37021  -0.00001  -0.00000  -0.00003  -0.00003   3.37018
    a5        1.89353   0.00000   0.00001  -0.00000   0.00000   1.89353
    d5        2.09439   0.00000  -0.00000   0.00000   0.00000   2.09439
         Item               Value     Threshold  Converged?
 Maximum Force            0.000010     0.000002     NO 
 RMS     Force            0.000006     0.000001     NO 
 Maximum Displacement     0.000030     0.000006     NO 
 RMS     Displacement     0.000019     0.000004     NO 
 Predicted change in Energy=-4.938615D-10
 GradGradGradGradGradGradGradGradGradGradGradGradGradGradGradGradGradGrad

 ---------------------------------------------------------------------------------------------------
                            Z-MATRIX (ANGSTROMS AND DEGREES)
   CD    Cent   Atom    N1       Length/X        N2       Alpha/Y        N3        Beta/Z          J
 ---------------------------------------------------------------------------------------------------
      1      1  C 
      2      2  F        1   1.341900(     1)
      3      3  Cl       1   1.783415(     2)      2  108.492(     5)
      4      4  Cl       1   1.783424(     3)      2  108.491(     6)      3  240.000(     8)      0
      5      5  Cl       1   1.783424(     4)      2  108.491(     7)      3  120.000(     9)      0
 ---------------------------------------------------------------------------------------------------
                         Z-Matrix orientation:                         
 ---------------------------------------------------------------------
 Center     Atomic      Atomic             Coordinates (Angstroms)
 Number     Number       Type             X           Y           Z
 ---------------------------------------------------------------------
      1          6           0        0.000000    0.000000    0.000000
      2          9           0        0.000000    0.000000    1.341900
      3         17           0        1.691333    0.000000   -0.565653
      4         17           0       -0.845672    1.464753   -0.565631
      5         17           0       -0.845672   -1.464753   -0.565631
 ---------------------------------------------------------------------
                    Distance matrix (angstroms):
                    1          2          3          4          5
     1  C    0.000000
     2  F    1.341900   0.000000
     3  Cl   1.783415   2.549385   0.000000
     4  Cl   1.783424   2.549380   2.929487   0.000000
     5  Cl   1.783424   2.549380   2.929487   2.929506   0.000000
 Stoichiometry    CCl3F
 Framework group  C1[X(CCl3F)]
 Deg. of freedom     9
 Full point group                 C1      NOp   1
 Largest Abelian subgroup         C1      NOp   1
 Largest concise Abelian subgroup C1      NOp   1
                         Standard orientation:                         
 ---------------------------------------------------------------------
 Center     Atomic      Atomic             Coordinates (Angstroms)
 Number     Number       Type             X           Y           Z
 ---------------------------------------------------------------------
      1          6           0        0.000000    0.000003    0.254098
      2          9           0        0.000000    0.000003    1.595998
      3         17           0       -0.000023    1.691336   -0.311555
      4         17           0       -1.464741   -0.845689   -0.311533
      5         17           0        1.464764   -0.845650   -0.311533
 ---------------------------------------------------------------------
 Rotational constants (GHZ):           2.4135188           2.4134900           1.6840337
 Standard basis: CC-pVDZ (5D, 7F)
 There are    87 symmetry adapted cartesian basis functions of A   symmetry.
 There are    82 symmetry adapted basis functions of A   symmetry.
    82 basis functions,   279 primitive gaussians,    87 cartesian basis functions
    33 alpha electrons       33 beta electrons
       nuclear repulsion energy       363.9792244686 Hartrees.
 NAtoms=    5 NActive=    5 NUniq=    5 SFac= 1.00D+00 NAtFMM=   60 NAOKFM=F Big=F
 Integral buffers will be    131072 words long.
 Regular integral format.
 Two-electron integral symmetry is turned on.
 One-electron integrals computed using PRISM.
 NBasis=    82 RedAO= T EigKep=  1.01D-02  NBF=    82
 NBsUse=    82 1.00D-06 EigRej= -1.00D+00 NBFU=    82
 Initial guess from the checkpoint file:  "checkpoint.chk"
 B after Tr=    -0.000000   -0.000000    0.000000
         Rot=    1.000000    0.000000   -0.000000   -0.000008 Ang=   0.00 deg.
 Keep R1 ints in memory in canonical form, NReq=9433254.
 Requested convergence on RMS density matrix=1.00D-08 within 128 cycles.
 Requested convergence on MAX density matrix=1.00D-06.
 Requested convergence on             energy=1.00D-06.
 No special actions if energy rises.
 SCF Done:  E(RB2PLYP) =  -1517.75386948     A.U. after    4 cycles
            NFock=  4  Conv=0.62D-08     -V/T= 2.0014
 DoSCS=T DFT=T ScalE2(SS,OS)=  0.270000  0.270000
 ExpMin= 1.52D-01 ExpMax= 1.28D+05 ExpMxC= 1.24D+03 IAcc=3 IRadAn=         5 AccDes= 0.00D+00
 HarFok:  IExCor=  205 AccDes= 0.00D+00 IRadAn=         5 IDoV=-2 UseB2=F ITyADJ=14
 ICtDFT= 12500011 ScaDFX=  1.000000  1.000000  1.000000  1.000000
 Range of M.O.s used for correlation:    18    82
 NBasis=    82 NAE=    33 NBE=    33 NFC=    17 NFV=     0
 NROrb=     65 NOA=    16 NOB=    16 NVA=    49 NVB=    49
 DoSCS=T DFT=T ScalE2(SS,OS)=  0.270000  0.270000
 Disk-based method using ON**2 memory for 16 occupieds at a time.
 Permanent disk used for amplitudes=     3235617 words.
 Estimated scratch disk usage=    21062636 words.
 Actual    scratch disk usage=    19570668 words.
 JobTyp=1 Pass  1:  I=  18 to  33 NPSUse=  4 ParTrn=T ParDer=T DoDerP=T.
 (rs|ai) integrals will be sorted in core.
 Spin components of T(2) and E(2):
     alpha-alpha T2 =       0.5261249781D-01 E2=     -0.3373678990D-01
     alpha-beta  T2 =       0.2672927296D+00 E2=     -0.1743823530D+00
     beta-beta   T2 =       0.5261249781D-01 E2=     -0.3373678990D-01
 E2(B2PLYP) =    -0.2418559328D+00 E(B2PLYP) =    -0.15179957254115D+04
 G2DrvN: will do     6 centers at a time, making    1 passes.
 Calling FoFCou, ICntrl=  3107 FMM=F I1Cent=   0 AccDes= 0.00D+00.
 End of G2Drv F.D. properties file   721 does not exist.
 End of G2Drv F.D. properties file   722 does not exist.
 End of G2Drv F.D. properties file   788 does not exist.
          IDoAtm=11111
          Differentiating once with respect to electric field.
                with respect to dipole field.
          Differentiating once with respect to nuclear coordinates.
 Keep R1 ints in memory in canonical form, NReq=9423942.
          There are    18 degrees of freedom in the 1st order CPHF.  IDoFFX=6 NUNeed=    18.
     15 vectors produced by pass  0 Test12= 8.98D-15 5.56D-09 XBig12= 2.05D+01 1.91D+00.
 AX will form    15 AO Fock derivatives at one time.
     15 vectors produced by pass  1 Test12= 8.98D-15 5.56D-09 XBig12= 1.41D+00 3.39D-01.
     15 vectors produced by pass  2 Test12= 8.98D-15 5.56D-09 XBig12= 7.37D-02 7.25D-02.
     15 vectors produced by pass  3 Test12= 8.98D-15 5.56D-09 XBig12= 3.84D-03 1.29D-02.
     15 vectors produced by pass  4 Test12= 8.98D-15 5.56D-09 XBig12= 3.13D-05 1.69D-03.
     15 vectors produced by pass  5 Test12= 8.98D-15 5.56D-09 XBig12= 1.09D-07 8.58D-05.
     15 vectors produced by pass  6 Test12= 8.98D-15 5.56D-09 XBig12= 4.39D-10 3.80D-06.
      4 vectors produced by pass  7 Test12= 8.98D-15 5.56D-09 XBig12= 1.40D-12 2.31D-07.
      3 vectors produced by pass  8 Test12= 8.98D-15 5.56D-09 XBig12= 4.08D-15 1.16D-08.
 InvSVY:  IOpt=1 It=  1 EMax= 7.77D-16
 Solved reduced A of dimension   112 with    15 vectors.
 End of Minotr F.D. properties file   721 does not exist.
 End of Minotr F.D. properties file   722 does not exist.
 End of Minotr F.D. properties file   788 does not exist.
 MDV=   104857600.
 DoSCS=T DFT=T ScalE2(SS,OS)=  0.270000  0.270000
 Form MO integral derivatives with frozen-active canonical formalism.
 Discarding MO integrals.
 Reordered first order wavefunction length =      5229378
 In DefCFB: NBatch=  1 ICI= 33 ICA= 49 LFMax= 25
            Large arrays: LIAPS=    46142712 LIARS=    18710307 words.
 Semi-Direct transformation.
 ModeAB=           2 MOrb=            33 LenV=     104495006
 LASXX=      6130641 LTotXX=     6130641 LenRXX=     6130641
 LTotAB=     6504597 MaxLAS=    10358568 LenRXY=    10358568
 NonZer=    12261282 LenScr=    19148800 LnRSAI=           0
 LnScr1=           0 LExtra=           0 Total=     35638009
 MaxDsk=          -1 SrtSym=           F ITran=            4
 JobTyp=0 Pass  1:  I=   1 to  33.
 (rs|ai) integrals will be sorted in core.
 SymMOI:  orbitals are not symmetric.
 DoSCS=T DFT=T ScalE2(SS,OS)=  0.270000  0.270000
 Spin components of T(2) and E(2):
     alpha-alpha T2 =       0.5261249781D-01 E2=     -0.3373678990D-01
     alpha-beta  T2 =       0.2672927296D+00 E2=     -0.1743823530D+00
     beta-beta   T2 =       0.5261249781D-01 E2=     -0.3373678990D-01
 E2(B2PLYP) =    -0.2418559328D+00 E(B2PLYP) =    -0.15179957254115D+04
          IDoAtm=11111
          Differentiating once with respect to electric field.
                with respect to dipole field.
          Differentiating once with respect to nuclear coordinates.
 Keep R1 ints in memory in canonical form, NReq=9436551.
          There are     1 degrees of freedom in the 1st order CPHF.  IDoFFX=0 NUNeed=     1.
 LinEq1:  Iter=  0 NonCon=     1 RMS=2.33D-03 Max=3.65D-02 NDo=     1
 AX will form     1 AO Fock derivatives at one time.
 LinEq1:  Iter=  1 NonCon=     1 RMS=1.12D-03 Max=1.10D-02 NDo=     1
 LinEq1:  Iter=  2 NonCon=     1 RMS=3.38D-04 Max=5.59D-03 NDo=     1
 LinEq1:  Iter=  3 NonCon=     1 RMS=1.26D-04 Max=1.48D-03 NDo=     1
 LinEq1:  Iter=  4 NonCon=     1 RMS=5.50D-05 Max=6.73D-04 NDo=     1
 LinEq1:  Iter=  5 NonCon=     1 RMS=8.07D-06 Max=8.52D-05 NDo=     1
 LinEq1:  Iter=  6 NonCon=     1 RMS=1.86D-06 Max=2.65D-05 NDo=     1
 LinEq1:  Iter=  7 NonCon=     1 RMS=4.39D-07 Max=5.99D-06 NDo=     1
 LinEq1:  Iter=  8 NonCon=     1 RMS=8.18D-08 Max=8.77D-07 NDo=     1
 LinEq1:  Iter=  9 NonCon=     1 RMS=1.94D-08 Max=2.17D-07 NDo=     1
 LinEq1:  Iter= 10 NonCon=     1 RMS=4.93D-09 Max=6.18D-08 NDo=     1
 LinEq1:  Iter= 11 NonCon=     1 RMS=8.03D-10 Max=1.24D-08 NDo=     1
 LinEq1:  Iter= 12 NonCon=     1 RMS=1.04D-10 Max=1.13D-09 NDo=     1
 LinEq1:  Iter= 13 NonCon=     0 RMS=1.10D-11 Max=8.62D-11 NDo=     1
 Linear equations converged to 1.000D-10 1.000D-09 after    13 iterations.
 End of Minotr F.D. properties file   721 does not exist.
 End of Minotr F.D. properties file   722 does not exist.
 End of Minotr F.D. properties file   788 does not exist.
 Symmetrizing basis deriv contribution to polar:
 IMax=3 JMax=2 DiffMx= 0.00D+00
 G2DrvN: will do     6 centers at a time, making    1 passes.
 Calling FoFCou, ICntrl=  3107 FMM=F I1Cent=   0 AccDes= 0.00D+00.
 End of G2Drv F.D. properties file   721 does not exist.
 End of G2Drv F.D. properties file   722 does not exist.
 End of G2Drv F.D. properties file   788 does not exist.
 DoSCS=T DFT=T ScalE2(SS,OS)=  0.270000  0.270000
 R2 and R3 integrals will be kept in memory, NReq=    15477412.
 DD1Dir will call FoFMem   1 times, MxPair=      1650
 NAB=   561 NAA=   528 NBB=     0.
 Discarding MO integrals.
 Calling FoFJK, ICntrl=  10100127 FMM=F ISym2X=0 I1Cent= 0 IOpClX= 0 NMat=1 NMatS=1 NMatT=0.
 ***** Axes restored to original set *****
 -------------------------------------------------------------------
 Center     Atomic                   Forces (Hartrees/Bohr)
 Number     Number              X              Y              Z
 -------------------------------------------------------------------
      1        6          -0.000002235    0.000000001   -0.000000157
      2        9           0.000002236   -0.000000000    0.000000065
      3       17           0.000000012    0.000000000    0.000000031
      4       17          -0.000000006    0.000000010    0.000000031
      5       17          -0.000000006   -0.000000012    0.000000031
 -------------------------------------------------------------------
 Cartesian Forces:  Max     0.000002236 RMS     0.000000818
 -----------------------------------------------------------------------------------------------
                       Internal Coordinate Forces (Hartree/Bohr or radian)
  Cent   Atom   N1       Length/X         N2         Alpha/Y        N3         Beta/Z          J
 -----------------------------------------------------------------------------------------------
      1  C 
      2  F        1   0.000000(     1)
      3  Cl       1   0.000000(     2)      2  -0.000000(     5)
      4  Cl       1   0.000000(     3)      2  -0.000000(     6)      3  -0.000000(     8)     0
      5  Cl       1   0.000000(     4)      2  -0.000000(     7)      3  -0.000000(     9)     0
 -----------------------------------------------------------------------------------------------
 Internal  Forces:  Max     0.000000113 RMS     0.000000068

 GradGradGradGradGradGradGradGradGradGradGradGradGradGradGradGradGradGrad
 Berny optimization.
 Search for a local minimum.
 Step number   4 out of a maximum of   20
 All quantities printed in internal units (Hartrees-Bohrs-Radians)
 Second derivative matrix not updated -- analytic derivatives used.
 DE=  2.13D-09 DEPred=-4.94D-10 R=-4.32D+00
 Trust test=-4.32D+00 RLast= 5.55D-05 DXMaxT set to 1.50D-01
 The second derivative matrix:
                          r2        r3        a3        r4        a4
           r2           0.38405
           r3           0.03616   0.20313
           a3           0.06559   0.00843   0.42301
           r4           0.03616   0.02655  -0.02771   0.20312
           a4           0.06558  -0.02771   0.10522   0.00847   0.42293
           d4          -0.00000  -0.05128   0.07174  -0.00005   0.00005
           r5           0.03616   0.02655  -0.02771   0.02655  -0.02771
           a5           0.06558  -0.02771   0.10522  -0.02771   0.10525
           d5           0.00000   0.05128  -0.07174  -0.05129   0.07176
                          d4        r5        a5        d5
           d4           0.38753
           r5           0.05129   0.20312
           a5          -0.07176   0.00847   0.42293
           d5          -0.19384   0.00005  -0.00005   0.38753
 ITU= -1  0  1  0
     Eigenvalues ---    0.10622   0.13413   0.21120   0.23031   0.30032
     Eigenvalues ---    0.35141   0.38400   0.64127   0.67850
 RFO step:  Lambda= 0.00000000D+00 EMin= 1.06219487D-01
 Quintic linear search produced a step of -0.88135.
 Variable       Old X    -DE/DX   Delta X   Delta X   Delta X     New X
                                 (Linear)    (Quad)   (Total)
    r2        2.53582   0.00000   0.00002  -0.00001   0.00001   2.53583
    r3        3.37017   0.00000   0.00003   0.00001   0.00003   3.37020
    a3        1.89354  -0.00000  -0.00000   0.00000  -0.00000   1.89354
    r4        3.37018   0.00000   0.00003   0.00001   0.00003   3.37021
    a4        1.89353  -0.00000  -0.00000   0.00000  -0.00000   1.89353
    d4        4.18879  -0.00000   0.00000   0.00000   0.00000   4.18879
    r5        3.37018   0.00000   0.00003   0.00001   0.00003   3.37021
    a5        1.89353  -0.00000  -0.00000   0.00000  -0.00000   1.89353
    d5        2.09439  -0.00000  -0.00000  -0.00000  -0.00000   2.09439
         Item               Value     Threshold  Converged?
 Maximum Force            0.000000     0.000002     YES
 RMS     Force            0.000000     0.000001     YES
 Maximum Displacement     0.000032     0.000006     NO 
 RMS     Displacement     0.000019     0.000004     NO 
 Predicted change in Energy=-4.169175D-10
 GradGradGradGradGradGradGradGradGradGradGradGradGradGradGradGradGradGrad

 ---------------------------------------------------------------------------------------------------
                            Z-MATRIX (ANGSTROMS AND DEGREES)
   CD    Cent   Atom    N1       Length/X        N2       Alpha/Y        N3        Beta/Z          J
 ---------------------------------------------------------------------------------------------------
      1      1  C 
      2      2  F        1   1.341903(     1)
      3      3  Cl       1   1.783432(     2)      2  108.492(     5)
      4      4  Cl       1   1.783441(     3)      2  108.491(     6)      3  240.000(     8)      0
      5      5  Cl       1   1.783441(     4)      2  108.491(     7)      3  120.000(     9)      0
 ---------------------------------------------------------------------------------------------------
                         Z-Matrix orientation:                         
 ---------------------------------------------------------------------
 Center     Atomic      Atomic             Coordinates (Angstroms)
 Number     Number       Type             X           Y           Z
 ---------------------------------------------------------------------
      1          6           0        0.000000    0.000000    0.000000
      2          9           0        0.000000    0.000000    1.341903
      3         17           0        1.691349    0.000000   -0.565658
      4         17           0       -0.845680    1.464767   -0.565636
      5         17           0       -0.845680   -1.464767   -0.565636
 ---------------------------------------------------------------------
                    Distance matrix (angstroms):
                    1          2          3          4          5
     1  C    0.000000
     2  F    1.341903   0.000000
     3  Cl   1.783432   2.549402   0.000000
     4  Cl   1.783441   2.549397   2.929515   0.000000
     5  Cl   1.783441   2.549397   2.929515   2.929534   0.000000
 Stoichiometry    CCl3F
 Framework group  C1[X(CCl3F)]
 Deg. of freedom     9
 Full point group                 C1      NOp   1
 Largest Abelian subgroup         C1      NOp   1
 Largest concise Abelian subgroup C1      NOp   1
                         Standard orientation:                         
 ---------------------------------------------------------------------
 Center     Atomic      Atomic             Coordinates (Angstroms)
 Number     Number       Type             X           Y           Z
 ---------------------------------------------------------------------
      1          6           0        0.000000    0.000003    0.254101
      2          9           0        0.000000    0.000003    1.596004
      3         17           0        0.000063    1.691352   -0.311557
      4         17           0       -1.464798   -0.845623   -0.311535
      5         17           0        1.464735   -0.845731   -0.311535
 ---------------------------------------------------------------------
 Rotational constants (GHZ):           2.4134800           2.4134512           1.6840015
 Standard basis: CC-pVDZ (5D, 7F)
 There are    87 symmetry adapted cartesian basis functions of A   symmetry.
 There are    82 symmetry adapted basis functions of A   symmetry.
    82 basis functions,   279 primitive gaussians,    87 cartesian basis functions
    33 alpha electrons       33 beta electrons
       nuclear repulsion energy       363.9762022789 Hartrees.
 NAtoms=    5 NActive=    5 NUniq=    5 SFac= 1.00D+00 NAtFMM=   60 NAOKFM=F Big=F
 Integral buffers will be    131072 words long.
 Regular integral format.
 Two-electron integral symmetry is turned on.
 One-electron integrals computed using PRISM.
 NBasis=    82 RedAO= T EigKep=  1.01D-02  NBF=    82
 NBsUse=    82 1.00D-06 EigRej= -1.00D+00 NBFU=    82
 Lowest energy guess from the checkpoint file:  "checkpoint.chk"
 B after Tr=     0.000000    0.000000    0.000000
         Rot=    1.000000   -0.000000    0.000000    0.000018 Ang=   0.00 deg.
 B after Tr=     0.000000   -0.000000    0.000000
         Rot=    1.000000   -0.000000    0.000000    0.000025 Ang=  -0.00 deg.
 Keep R1 ints in memory in canonical form, NReq=9433254.
 Requested convergence on RMS density matrix=1.00D-08 within 128 cycles.
 Requested convergence on MAX density matrix=1.00D-06.
 Requested convergence on             energy=1.00D-06.
 No special actions if energy rises.
 SCF Done:  E(RB2PLYP) =  -1517.75386893     A.U. after    4 cycles
            NFock=  4  Conv=0.43D-08     -V/T= 2.0014
 DoSCS=T DFT=T ScalE2(SS,OS)=  0.270000  0.270000
 ExpMin= 1.52D-01 ExpMax= 1.28D+05 ExpMxC= 1.24D+03 IAcc=3 IRadAn=         5 AccDes= 0.00D+00
 HarFok:  IExCor=  205 AccDes= 0.00D+00 IRadAn=         5 IDoV=-2 UseB2=F ITyADJ=14
[...]
      1      1  C 
      2      2  F        1   1.341899(     1)
      3      3  Cl       1   1.783425(     2)      2  108.492(     5)
      4      4  Cl       1   1.783432(     3)      2  108.491(     6)      3  240.000(     8)      0
      5      5  Cl       1   1.783409(     4)      2  108.493(     7)      3  120.000(     9)      0
 ---------------------------------------------------------------------------------------------------
                         Z-Matrix orientation:                         
 ---------------------------------------------------------------------
 Center     Atomic      Atomic             Coordinates (Angstroms)
 Number     Number       Type             X           Y           Z
 ---------------------------------------------------------------------
      1          6           0        0.000000    0.000000    0.000000
      2          9           0        0.000000    0.000000    1.341899
      3         17           0        1.691343    0.000000   -0.565654
      4         17           0       -0.845677    1.464758   -0.565636
      5         17           0       -0.845660   -1.464723   -0.565679
 ---------------------------------------------------------------------
                    Distance matrix (angstroms):
                    1          2          3          4          5
     1  C    0.000000
     2  F    1.341899   0.000000
     3  Cl   1.783425   2.549392   0.000000
     4  Cl   1.783432   2.549387   2.929503   0.000000
     5  Cl   1.783409   2.549393   2.929471   2.929481   0.000000
 Stoichiometry    CCl3F
 Framework group  C1[X(CCl3F)]
 Deg. of freedom     9
 Full point group                 C1      NOp   1
 Largest Abelian subgroup         C1      NOp   1
 Largest concise Abelian subgroup C1      NOp   1
                         Standard orientation:                         
 ---------------------------------------------------------------------
 Center     Atomic      Atomic             Coordinates (Angstroms)
 Number     Number       Type             X           Y           Z
 ---------------------------------------------------------------------
      1          6           0       -0.000004    0.000008    0.254112
      2          9           0       -0.000004    0.000008    1.596011
      3         17           0       -1.313112   -1.066008   -0.311542
      4         17           0        1.579758   -0.604175   -0.311524
      5         17           0       -0.266642    1.670175   -0.311567
 ---------------------------------------------------------------------
 Rotational constants (GHZ):           2.4135242           2.4134793           1.6840434

 **********************************************************************

            Population analysis using the SCF Density.

 **********************************************************************

 Orbital symmetries:
       Occupied  (A) (A) (A) (A) (A) (A) (A) (A) (A) (A) (A) (A)
                 (A) (A) (A) (A) (A) (A) (A) (A) (A) (A) (A) (A)
                 (A) (A) (A) (A) (A) (A) (A) (A) (A)
       Virtual   (A) (A) (A) (A) (A) (A) (A) (A) (A) (A) (A) (A)
                 (A) (A) (A) (A) (A) (A) (A) (A) (A) (A) (A) (A)
                 (A) (A) (A) (A) (A) (A) (A) (A) (A) (A) (A) (A)
                 (A) (A) (A) (A) (A) (A) (A) (A) (A) (A) (A) (A)
                 (A)
 The electronic state is 1-A.
 Alpha  occ. eigenvalues -- -102.95695-102.95695-102.95695 -25.43218 -10.90192
 Alpha  occ. eigenvalues --   -9.95494  -9.95494  -9.95487  -7.59515  -7.59514
 Alpha  occ. eigenvalues --   -7.59514  -7.58698  -7.58698  -7.58698  -7.58693
 Alpha  occ. eigenvalues --   -7.58692  -7.58692  -1.45815  -1.06924  -0.97477
 Alpha  occ. eigenvalues --   -0.97477  -0.76583  -0.63523  -0.63337  -0.63337
 Alpha  occ. eigenvalues --   -0.50510  -0.50510  -0.43653  -0.42491  -0.42491
 Alpha  occ. eigenvalues --   -0.39517  -0.39517  -0.38084
 Alpha virt. eigenvalues --    0.01086   0.07741   0.07741   0.17226   0.47825
 Alpha virt. eigenvalues --    0.47825   0.52956   0.53784   0.53785   0.54882
 Alpha virt. eigenvalues --    0.57521   0.58277   0.58277   0.60844   0.62959
 Alpha virt. eigenvalues --    0.62960   0.64897   0.67145   0.67145   0.77436
 Alpha virt. eigenvalues --    0.77437   0.78548   0.80258   0.81390   0.81390
 Alpha virt. eigenvalues --    0.85656   0.85656   0.91731   0.95362   1.06886
 Alpha virt. eigenvalues --    1.08399   1.08400   1.22849   1.22850   1.28559
 Alpha virt. eigenvalues --    1.46049   1.46049   1.47663   1.47997   1.47997
 Alpha virt. eigenvalues --    1.83052   1.83053   1.87512   2.56318   3.68914
 Alpha virt. eigenvalues --    3.68914   3.89816   3.89816   4.17560
          Condensed to atoms (all electrons):
               1          2          3          4          5
     1  C    4.720325   0.328566   0.278511   0.278510   0.278509
     2  F    0.328566   8.956094  -0.041452  -0.041453  -0.041451
     3  Cl   0.278511  -0.041452  16.897958  -0.074960  -0.074965
     4  Cl   0.278510  -0.041453  -0.074960  16.897967  -0.074965
     5  Cl   0.278509  -0.041451  -0.074965  -0.074965  16.897957
 Mulliken charges:
               1
     1  C    0.115578
     2  F   -0.160303
     3  Cl   0.014909
     4  Cl   0.014901
     5  Cl   0.014915
 Sum of Mulliken charges =  -0.00000
 Mulliken charges with hydrogens summed into heavy atoms:
               1
     1  C    0.115578
     2  F   -0.160303
     3  Cl   0.014909
     4  Cl   0.014901
     5  Cl   0.014915
 APT charges:
               1
     1  C    1.654517
     2  F   -0.591525
     3  Cl  -0.354337
     4  Cl  -0.354324
     5  Cl  -0.354331
 Sum of APT charges =  -0.00000
 APT charges with hydrogens summed into heavy atoms:
               1
     1  C    1.654517
     2  F   -0.591525
     3  Cl  -0.354337
     4  Cl  -0.354324
     5  Cl  -0.354331
 Electronic spatial extent (au):  <R**2>=            727.8164
 Charge=              0.0000 electrons
 Dipole moment (field-independent basis, Debye):
    X=             -0.0000    Y=              0.0001    Z=             -0.3956  Tot=              0.3956
 Quadrupole moment (field-independent basis, Debye-Ang):
   XX=            -46.8283   YY=            -46.8282   ZZ=            -48.7806
   XY=              0.0000   XZ=              0.0000   YZ=             -0.0000
 Traceless Quadrupole moment (field-independent basis, Debye-Ang):
   XX=              0.6507   YY=              0.6508   ZZ=             -1.3015
   XY=              0.0000   XZ=              0.0000   YZ=             -0.0000
 Octapole moment (field-independent basis, Debye-Ang**2):
  XXX=              1.9464  YYY=              3.7858  ZZZ=              6.5212  XYY=             -1.9465
  XXY=             -3.7855  XXZ=              0.4982  XZZ=             -0.0001  YZZ=              0.0001
  YYZ=              0.4980  XYZ=             -0.0000
 Hexadecapole moment (field-independent basis, Debye-Ang**3):
 XXXX=           -346.1522 YYYY=           -346.1444 ZZZZ=           -144.8010 XXXY=             -0.0000
 XXXZ=             -2.2215 YYYX=              0.0000 YYYZ=             -4.3174 ZZZX=             -0.0010
 ZZZY=              0.0015 XXYY=           -115.3827 XXZZ=            -83.2803 YYZZ=            -83.2785
 XXYZ=              4.3192 YYXZ=              2.2204 ZZXY=              0.0000
 N-N= 3.639793057260D+02 E-N=-4.336876400018D+03  KE= 1.515645353554D+03
  Exact polarizability:      45.096      -0.000      45.096       0.000       0.000      28.004
 Approx polarizability:      53.025       0.000      53.024       0.000      -0.000      37.028
 Rotating derivatives to standard orientation.
 Full mass-weighted force constant matrix:
 Low frequencies ---   -0.0037    0.0031    0.0037    0.5853    1.1155    5.8330
 Low frequencies ---  246.0947  246.1159  350.4286
 Diagonal vibrational polarizability:
       11.2695818      11.2706119       4.9503413
 Harmonic frequencies (cm**-1), IR intensities (KM/Mole), Raman scattering
 activities (A**4/AMU), depolarization ratios for plane and unpolarized
 incident light, reduced masses (AMU), force constants (mDyne/A),
 and normal coordinates:
                      1                      2                      3
                      A                      A                      A
 Frequencies --    246.0947               246.1159               350.4286
 Red. masses --     29.9111                29.9111                25.7117
 Frc consts  --      1.0673                 1.0675                 1.8603
 IR Inten    --      0.0124                 0.0124                 0.0083
  Atom  AN      X      Y      Z        X      Y      Z        X      Y      Z
     1   6    -0.04  -0.20   0.00    -0.20   0.04  -0.00    -0.00   0.00   0.46
     2   9    -0.10  -0.50   0.00    -0.50   0.10   0.00    -0.00  -0.00   0.52
     3  17    -0.42   0.12   0.17     0.11  -0.46   0.14     0.30   0.24  -0.15
     4  17     0.25   0.49   0.04    -0.27   0.20  -0.22    -0.36   0.14  -0.15
     5  17     0.24  -0.27  -0.21     0.50   0.19   0.08     0.06  -0.38  -0.15
                      4                      5                      6
                      A                      A                      A
 Frequencies --    397.9527               397.9781               530.2086
 Red. masses --     25.3859                25.3855                22.5454
 Frc consts  --      2.3687                 2.3689                 3.7342
 IR Inten    --      0.1425                 0.1420                 2.8722
  Atom  AN      X      Y      Z        X      Y      Z        X      Y      Z
     1   6    -0.03  -0.08   0.00    -0.08   0.03   0.00     0.00  -0.00   0.52
     2   9     0.27   0.72   0.00     0.72  -0.27   0.00    -0.00   0.00   0.62
     3  17    -0.31  -0.16  -0.26    -0.08  -0.22  -0.16    -0.22  -0.18  -0.17
     4  17     0.05   0.13  -0.00    -0.37   0.14   0.31     0.27  -0.10  -0.17
     5  17     0.12  -0.33   0.27     0.09   0.21  -0.15    -0.05   0.29  -0.17
                      7                      8                      9
                      A                      A                      A
 Frequencies --    833.2835               833.4744              1123.6905
 Red. masses --     12.8480                12.8481                13.6752
 Frc consts  --      5.2562                 5.2586                10.1737
 IR Inten    --    290.0931               290.0892               219.2850
  Atom  AN      X      Y      Z        X      Y      Z        X      Y      Z
     1   6     0.63   0.75   0.00     0.75  -0.63   0.00    -0.00   0.00   0.87
     2   9    -0.08  -0.10  -0.00    -0.10   0.08  -0.00     0.00  -0.00  -0.49
     3  17    -0.10  -0.09  -0.02    -0.04   0.01  -0.00    -0.00  -0.00  -0.01
     4  17    -0.05  -0.02   0.01    -0.12   0.06   0.02     0.00  -0.00  -0.01
     5  17    -0.01  -0.09   0.01    -0.04   0.10  -0.02    -0.00   0.00  -0.01

 -------------------
 - Thermochemistry -
 -------------------
 Temperature   298.150 Kelvin.  Pressure   1.00000 Atm.
 Atom     1 has atomic number  6 and mass  12.00000
 Atom     2 has atomic number  9 and mass  18.99840
 Atom     3 has atomic number 17 and mass  34.96885
 Atom     4 has atomic number 17 and mass  34.96885
 Atom     5 has atomic number 17 and mass  34.96885
 Molecular mass:   135.90496 amu.
 Principal axes and moments of inertia in atomic units:
                           1         2         3
     Eigenvalues --   747.76180 747.775721071.67146
           X            1.00000   0.00000  -0.00001
           Y           -0.00000   1.00000   0.00002
           Z            0.00001  -0.00002   1.00000
 This molecule is an asymmetric top.
 Rotational symmetry number  1.
 Warning -- assumption of classical behavior for rotation
           may cause significant error
 Rotational temperatures (Kelvin)      0.11583     0.11583     0.08082
 Rotational constants (GHZ):           2.41352     2.41348     1.68404
 Zero-point vibrational energy      29662.8 (Joules/Mol)
                                    7.08957 (Kcal/Mol)
 Warning -- explicit consideration of   6 degrees of freedom as
           vibrations may cause significant error
 Vibrational temperatures:    354.08   354.11   504.19   572.57   572.60
          (Kelvin)            762.85  1198.91  1199.18  1616.74
 
 Zero-point correction=                           0.011298 (Hartree/Particle)
 Thermal correction to Energy=                    0.016462
 Thermal correction to Enthalpy=                  0.017406
 Thermal correction to Gibbs Free Energy=        -0.018773
 Sum of electronic and zero-point Energies=          -1517.984428
 Sum of electronic and thermal Energies=             -1517.979264
 Sum of electronic and thermal Enthalpies=           -1517.978320
 Sum of electronic and thermal Free Energies=        -1518.014499
 
                     E (Thermal)             CV                S
                      KCal/Mol        Cal/Mol-Kelvin    Cal/Mol-Kelvin
 Total                   10.330             16.661             76.145
 Electronic               0.000              0.000              0.000
 Translational            0.889              2.981             40.632
 Rotational               0.889              2.981             27.885
 Vibrational              8.553             10.700              7.628
 Vibration     1          0.661              1.769              1.758
 Vibration     2          0.661              1.769              1.758
 Vibration     3          0.727              1.574              1.164
 Vibration     4          0.764              1.475              0.970
 Vibration     5          0.764              1.474              0.970
 Vibration     6          0.885              1.183              0.587
                       Q            Log10(Q)             Ln(Q)
 Total Bot       0.431479D+09          8.634960         19.882730
 Total V=0       0.678659D+14         13.831652         31.848555
 Vib (Bot)       0.250040D-04         -4.601991        -10.596475
 Vib (Bot)    1  0.794533D+00         -0.099888         -0.230001
 Vib (Bot)    2  0.794456D+00         -0.099930         -0.230098
 Vib (Bot)    3  0.526350D+00         -0.278726         -0.641790
 Vib (Bot)    4  0.448553D+00         -0.348187         -0.801729
 Vib (Bot)    5  0.448516D+00         -0.348222         -0.801811
 Vib (Bot)    6  0.301575D+00         -0.520605         -1.198737
 Vib (V=0)       0.393279D+01          0.594701          1.369350
 Vib (V=0)    1  0.143877D+01          0.157990          0.363786
 Vib (V=0)    2  0.143870D+01          0.157971          0.363741
 Vib (V=0)    3  0.122598D+01          0.088483          0.203739
 Vib (V=0)    4  0.117171D+01          0.068822          0.158468
 Vib (V=0)    5  0.117169D+01          0.068812          0.158446
 Vib (V=0)    6  0.108391D+01          0.034992          0.080572
 Electronic      0.100000D+01          0.000000          0.000000
 Translational   0.622740D+08          7.794307         17.947055
 Rotational      0.277105D+06          5.442644         12.532150
 ***** Axes restored to original set *****
 -------------------------------------------------------------------
 Center     Atomic                   Forces (Hartrees/Bohr)
 Number     Number              X              Y              Z
 -------------------------------------------------------------------
      1        6           0.000003403    0.000006974    0.000000708
      2        9           0.000000531   -0.000003248   -0.000000056
      3       17          -0.000002347    0.000001129    0.000000139
      4       17           0.000000587   -0.000002029    0.000001373
      5       17          -0.000002175   -0.000002826   -0.000002164
 -------------------------------------------------------------------
 Cartesian Forces:  Max     0.000006974 RMS     0.000002609
 -----------------------------------------------------------------------------------------------
                       Internal Coordinate Forces (Hartree/Bohr or radian)
  Cent   Atom   N1       Length/X         N2         Alpha/Y        N3         Beta/Z          J
 -----------------------------------------------------------------------------------------------
      1  C 
      2  F        1  -0.000000(     1)
      3  Cl       1  -0.000002(     2)      2   0.000002(     5)
      4  Cl       1  -0.000002(     3)      2  -0.000002(     6)      3  -0.000002(     8)     0
      5  Cl       1   0.000004(     4)      2   0.000003(     7)      3   0.000002(     9)     0
 -----------------------------------------------------------------------------------------------
 Internal  Forces:  Max     0.000004038 RMS     0.000002379

 ----------------------------------------------------------------------

 Electric dipole moment (input orientation):
 (Debye = 10**-18 statcoulomb cm , SI units = C m)
                  (au)            (Debye)         (10**-30 SI)
   Tot        0.117795D+00      0.299406D+00      0.998712D+00
   x          0.000000D+00      0.000000D+00      0.000000D+00
   y         -0.357351D-04     -0.908295D-04     -0.302974D-03
   z         -0.117795D+00     -0.299406D+00     -0.998712D+00

 Dipole polarizability, Alpha (input orientation).
 (esu units = cm**3 , SI units = C**2 m**2 J**-1)
 Alpha(0;0):
               (au)            (10**-24 esu)      (10**-40 SI)
   iso        0.393984D+02      0.583824D+01      0.649592D+01
   aniso      0.170922D+02      0.253281D+01      0.281813D+01
   xx         0.450960D+02      0.668254D+01      0.743533D+01
   yx        -0.355795D-03     -0.527233D-04     -0.586626D-04
   yy         0.450956D+02      0.668248D+01      0.743526D+01
   zx         0.166651D-03      0.246952D-04      0.274771D-04
   zy         0.198547D-03      0.294216D-04      0.327359D-04
   zz         0.280036D+02      0.414970D+01      0.461717D+01

 ----------------------------------------------------------------------

 Dipole orientation:
     6          0.00000000          0.00000000         -0.00000000
     9         -0.00013467          0.00076928         -2.53582102
    17          3.19623232         -0.00032425          1.06876127
    17         -1.59804127         -2.76831560          1.06814247
    17         -1.59800896          2.76760100          1.06990232

 Electric dipole moment (dipole orientation):
 (Debye = 10**-18 statcoulomb cm , SI units = C m)
                  (au)            (Debye)         (10**-30 SI)
   Tot        0.117795D+00      0.299406D+00      0.998712D+00
   x          0.000000D+00      0.000000D+00      0.000000D+00
   y          0.000000D+00      0.000000D+00      0.000000D+00
   z          0.117795D+00      0.299406D+00      0.998712D+00

 Dipole polarizability, Alpha (dipole orientation).
 (esu units = cm**3 , SI units = C**2 m**2 J**-1)
 Alpha(0;0):
               (au)            (10**-24 esu)      (10**-40 SI)
   iso        0.393984D+02      0.583824D+01      0.649592D+01
   aniso      0.170922D+02      0.253281D+01      0.281813D+01
   xx         0.450960D+02      0.668254D+01      0.743533D+01
   yx         0.356131D-03      0.527732D-04      0.587181D-04
   yy         0.450956D+02      0.668248D+01      0.743526D+01
   zx        -0.107426D-02     -0.159188D-03     -0.177121D-03
   zy         0.538366D-02      0.797775D-03      0.887645D-03
   zz         0.280036D+02      0.414970D+01      0.461717D+01

 ----------------------------------------------------------------------


 READER, WHETHER YOU BE DILETTANTE OR PROFESSOR ... SHOW YOURSELF TO BE
 MORE HUMAN THAN CRITICAL, AND THEN YOUR PLEASURE WILL INCREASE.
                                           -- DOMENICO SCARLATTI (1738)
 Error termination request processed by link 9999.
 Error termination via Lnk1e in /apps/gaussian/g16c01/g16/l9999.exe at Sat Sep 19 14:17:26 2020.
 Job cpu time:       0 days  2 hours  1 minutes 52.0 seconds.
 Elapsed time:       0 days  0 hours 40 minutes 50.3 seconds.
 File lengths (MBytes):  RWF=    576 Int=      0 D2E=      0 Chk=      2 Scr=      1
