 Entering Gaussian System, Link 0=g16
 Input=CFC-114.gjf
 Output=CFC-114.log
 Initial command:
 /apps/gaussian/g16c01/g16/l1.exe "/jobfs/11622737.gadi-pbs/Gau-2400397.inp" -scrdir="/jobfs/11622737.gadi-pbs/"
 Entering Link 1 = /apps/gaussian/g16c01/g16/l1.exe PID=   2400398.
  
 Copyright (c) 1988-2019, Gaussian, Inc.  All Rights Reserved.
  
 This is part of the Gaussian(R) 16 program.  It is based on
 the Gaussian(R) 09 system (copyright 2009, Gaussian, Inc.),
 the Gaussian(R) 03 system (copyright 2003, Gaussian, Inc.),
 the Gaussian(R) 98 system (copyright 1998, Gaussian, Inc.),
 the Gaussian(R) 94 system (copyright 1995, Gaussian, Inc.),
 the Gaussian 92(TM) system (copyright 1992, Gaussian, Inc.),
 the Gaussian 90(TM) system (copyright 1990, Gaussian, Inc.),
 the Gaussian 88(TM) system (copyright 1988, Gaussian, Inc.),
 the Gaussian 86(TM) system (copyright 1986, Carnegie Mellon
 University), and the Gaussian 82(TM) system (copyright 1983,
 Carnegie Mellon University). Gaussian is a federally registered
 trademark of Gaussian, Inc.
  
 This software contains proprietary and confidential information,
 including trade secrets, belonging to Gaussian, Inc.
  
 This software is provided under written license and may be
 used, copied, transmitted, or stored only in accord with that
 written license.
  
 The following legend is applicable only to US Government
 contracts under FAR:
  
                    RESTRICTED RIGHTS LEGEND
  
 Use, reproduction and disclosure by the US Government is
 subject to restrictions as set forth in subparagraphs (a)
 and (c) of the Commercial Computer Software - Restricted
 Rights clause in FAR 52.227-19.
  
 Gaussian, Inc.
 340 Quinnipiac St., Bldg. 40, Wallingford CT 06492
  
  
 ---------------------------------------------------------------
 Warning -- This program may not be used in any manner that
 competes with the business of Gaussian, Inc. or will provide
 assistance to any competitor of Gaussian, Inc.  The licensee
 of this program is prohibited from giving any competitor of
 Gaussian, Inc. access to this program.  By using this program,
 the user acknowledges that Gaussian, Inc. is engaged in the
 business of creating and licensing software in the field of
 computational chemistry and represents and warrants to the
 licensee that it is not a competitor of Gaussian, Inc. and that
 it will not use this program in any manner prohibited above.
 ---------------------------------------------------------------
  

 Cite this work as:
 Gaussian 16, Revision C.01,
 M. J. Frisch, G. W. Trucks, H. B. Schlegel, G. E. Scuseria, 
 M. A. Robb, J. R. Cheeseman, G. Scalmani, V. Barone, 
 G. A. Petersson, H. Nakatsuji, X. Li, M. Caricato, A. V. Marenich, 
 J. Bloino, B. G. Janesko, R. Gomperts, B. Mennucci, H. P. Hratchian, 
 J. V. Ortiz, A. F. Izmaylov, J. L. Sonnenberg, D. Williams-Young, 
 F. Ding, F. Lipparini, F. Egidi, J. Goings, B. Peng, A. Petrone, 
 T. Henderson, D. Ranasinghe, V. G. Zakrzewski, J. Gao, N. Rega, 
 G. Zheng, W. Liang, M. Hada, M. Ehara, K. Toyota, R. Fukuda, 
 J. Hasegawa, M. Ishida, T. Nakajima, Y. Honda, O. Kitao, H. Nakai, 
 T. Vreven, K. Throssell, J. A. Montgomery, Jr., J. E. Peralta, 
 F. Ogliaro, M. J. Bearpark, J. J. Heyd, E. N. Brothers, K. N. Kudin, 
 V. N. Staroverov, T. A. Keith, R. Kobayashi, J. Normand, 
 K. Raghavachari, A. P. Rendell, J. C. Burant, S. S. Iyengar, 
 J. Tomasi, M. Cossi, J. M. Millam, M. Klene, C. Adamo, R. Cammi, 
 J. W. Ochterski, R. L. Martin, K. Morokuma, O. Farkas, 
 J. B. Foresman, and D. J. Fox, Gaussian, Inc., Wallingford CT, 2019.
 
 ******************************************
 Gaussian 16:  ES64L-G16RevC.01  3-Jul-2019
                24-Sep-2020 
 ******************************************
 %NprocShared=4
 Will use up to    4 processors via shared memory.
 %chk=checkpoint.chk
 -------------------------------------------------------------------
 # B2PLYP/cc-pVTZ Freq Opt=(VeryTight,ZMatrix,CalcAll) Int=UltraFine
 -------------------------------------------------------------------
 1/7=1,10=4,18=40,38=1/1,3;
 2/12=2,17=6,18=5,29=3,40=1/2;
 3/5=16,6=1,11=9,25=1,30=1,71=2,74=-47,75=-5,140=1/1,2,3;
 4//1;
 5/5=2,38=5/2;
 8/6=3,8=1,10=1,19=11,30=-1/1;
 9/15=3,16=-3/6;
 11/6=1,8=1,15=11,17=12,24=-1,27=1,28=-2,29=300,32=6,42=3/1,2,10;
 10/6=2,21=1/2;
 8/6=4,8=1,10=1,19=11,30=-1/11,4;
 10/5=1,20=4/2;
 11/12=2,14=11,16=1,17=2,28=-2,42=3,76=2/2,10,12;
 6/7=2,8=2,9=2,10=2,18=1/1;
 7/10=1,12=2,25=1,44=2/1,2,3,16;
 1/7=1,10=4,18=40/3(3);
 2/29=3/2;
 7/8=1,9=1,25=1,44=-1/16;
 99//99;
 2/29=3/2;
 3/5=16,6=1,11=9,25=1,30=1,71=2,74=-47,75=-5,140=1/1,2,3;
 4/5=5,16=3,69=1/1;
 5/5=2,38=5/2;
 8/6=3,8=1,10=1,19=11,30=-1/1;
 9/15=3,16=-3/6;
 11/6=1,8=1,15=11,17=12,24=-1,27=1,28=-2,29=300,32=6,42=3/1,2,10;
 10/6=2,21=1/2;
 8/6=4,8=1,10=1,19=11,30=-1/11,4;
 10/5=1,20=4/2;
 11/12=2,14=11,16=1,17=2,28=-2,42=3,76=2/2,10,12;
 7/10=1,12=2,25=1,44=2/1,2,3,16;
 1/7=1,10=4,18=40/3(-12);
 2/29=3/2;
 6/7=2,8=2,9=2,10=2,18=1/1;
 7/8=1,9=1,25=1,44=-1/16;
 99//99;
 ------------------------------------------
 CFC-114 - ClF2C-CClF2 HARMONIC FREQUENCIES
 ------------------------------------------
 Symbolic Z-matrix:
 Charge =  0 Multiplicity = 1
 C
 C                    1    r2
 Cl                   1    r3       2    a3
 F                    1    r4       2    a4       3    d4       0
 F                    1    r5       2    a5       3    d5       0
 F                    2    r6       1    a6       3    d6       0
 F                    2    r7       1    a7       3    d7       0
 Cl                   2    r8       1    a8       3    d8       0
       Variables:
  r2                    1.5394                   
  r3                    1.7848                   
  a3                  112.3                      
  r4                    1.3628                   
  a4                  110.94                     
  d4                  238.76                     
  r5                    1.3628                   
  a5                  110.94                     
  d5                  121.24                     
  r6                    1.3629                   
  a6                  110.9                      
  d6                   58.72                     
  r7                    1.3629                   
  a7                  110.9                      
  d7                  301.28                     
  r8                    1.7844                   
  a8                  112.26                     
  d8                  180.                       
 

 GradGradGradGradGradGradGradGradGradGradGradGradGradGradGradGradGradGrad
 Berny optimization.
 Initialization pass.
                       ----------------------------
                       !    Initial Parameters    !
                       ! (Angstroms and Degrees)  !
 ----------------------                            ----------------------
 !      Name          Value   Derivative information (Atomic Units)     !
 ------------------------------------------------------------------------
 !       r2          1.5394   calculate D2E/DX2 analytically            !
 !       r3          1.7848   calculate D2E/DX2 analytically            !
 !       a3        112.3      calculate D2E/DX2 analytically            !
 !       r4          1.3628   calculate D2E/DX2 analytically            !
 !       a4        110.94     calculate D2E/DX2 analytically            !
 !       d4        238.76     calculate D2E/DX2 analytically            !
 !       r5          1.3628   calculate D2E/DX2 analytically            !
 !       a5        110.94     calculate D2E/DX2 analytically            !
 !       d5        121.24     calculate D2E/DX2 analytically            !
 !       r6          1.3629   calculate D2E/DX2 analytically            !
 !       a6        110.9      calculate D2E/DX2 analytically            !
 !       d6         58.72     calculate D2E/DX2 analytically            !
 !       r7          1.3629   calculate D2E/DX2 analytically            !
 !       a7        110.9      calculate D2E/DX2 analytically            !
 !       d7        301.28     calculate D2E/DX2 analytically            !
 !       r8          1.7844   calculate D2E/DX2 analytically            !
 !       a8        112.26     calculate D2E/DX2 analytically            !
 !       d8        180.0      calculate D2E/DX2 analytically            !
 ------------------------------------------------------------------------
 Trust Radius=3.00D-01 FncErr=1.00D-07 GrdErr=1.00D-07 EigMax=2.50D+02 EigMin=1.00D-04
 Number of steps in this run=     28 maximum allowed number of steps=    100.
 GradGradGradGradGradGradGradGradGradGradGradGradGradGradGradGradGradGrad

 ---------------------------------------------------------------------------------------------------
                            Z-MATRIX (ANGSTROMS AND DEGREES)
   CD    Cent   Atom    N1       Length/X        N2       Alpha/Y        N3        Beta/Z          J
 ---------------------------------------------------------------------------------------------------
      1      1  C 
      2      2  C        1   1.539400(     1)
      3      3  Cl       1   1.784800(     2)      2  112.300(     8)
      4      4  F        1   1.362800(     3)      2  110.940(     9)      3  238.760(    14)      0
      5      5  F        1   1.362800(     4)      2  110.940(    10)      3  121.240(    15)      0
      6      6  F        2   1.362900(     5)      1  110.900(    11)      3   58.720(    16)      0
      7      7  F        2   1.362900(     6)      1  110.900(    12)      3  301.280(    17)      0
      8      8  Cl       2   1.784400(     7)      1  112.260(    13)      3  180.000(    18)      0
 ---------------------------------------------------------------------------------------------------
                         Z-Matrix orientation:                         
 ---------------------------------------------------------------------
 Center     Atomic      Atomic             Coordinates (Angstroms)
 Number     Number       Type             X           Y           Z
 ---------------------------------------------------------------------
      1          6           0        0.000000    0.000000    0.000000
      2          6           0        0.000000    0.000000    1.539400
      3         17           0        1.651314    0.000000   -0.677253
      4          9           0       -0.660102    1.088242   -0.487051
      5          9           0       -0.660102   -1.088242   -0.487051
      6          9           0        0.661086    1.088151    2.025598
      7          9           0        0.661086   -1.088151    2.025598
      8         17           0       -1.651417    0.000000    2.215349
 ---------------------------------------------------------------------
                    Distance matrix (angstroms):
                    1          2          3          4          5
     1  C    0.000000
     2  C    1.539400   0.000000
     3  Cl   1.784800   2.764126   0.000000
     4  F    1.362800   2.393013   2.561853   0.000000
     5  F    1.362800   2.393013   2.561853   2.176484   0.000000
     6  F    2.392521   1.362900   3.077342   2.838828   3.577098
     7  F    2.392521   1.362900   3.077342   3.577098   2.838828
     8  Cl   2.763141   1.784400   4.390351   3.077327   3.077327
                    6          7          8
     6  F    0.000000
     7  F    2.176302   0.000000
     8  Cl   2.562762   2.562762   0.000000
 Stoichiometry    C2Cl2F4
 Framework group  CS[SG(C2Cl2),X(F4)]
 Deg. of freedom    11
 Full point group                 CS      NOp   2
 Largest Abelian subgroup         CS      NOp   2
 Largest concise Abelian subgroup CS      NOp   2
                         Standard orientation:                         
 ---------------------------------------------------------------------
 Center     Atomic      Atomic             Coordinates (Angstroms)
 Number     Number       Type             X           Y           Z
 ---------------------------------------------------------------------
      1          6           0       -0.357832   -0.680948   -0.000000
      2          6           0        0.358603    0.681577    0.000000
      3         17           0       -2.134605   -0.511865   -0.000000
      4          9           0       -0.000249   -1.419248    1.088242
      5          9           0       -0.000249   -1.419248   -1.088242
      6          9           0       -0.000249    1.419580    1.088151
      7          9           0       -0.000249    1.419580   -1.088151
      8         17           0        2.134859    0.511292    0.000000
 ---------------------------------------------------------------------
 Rotational constants (GHZ):           2.1559438           1.1232939           1.0020581
 Standard basis: CC-pVTZ (5D, 7F)
 There are   172 symmetry adapted cartesian basis functions of A'  symmetry.
 There are   116 symmetry adapted cartesian basis functions of A"  symmetry.
 There are   146 symmetry adapted basis functions of A'  symmetry.
 There are   102 symmetry adapted basis functions of A"  symmetry.
   248 basis functions,   500 primitive gaussians,   288 cartesian basis functions
    41 alpha electrons       41 beta electrons
       nuclear repulsion energy       603.5859974614 Hartrees.
 NAtoms=    8 NActive=    8 NUniq=    6 SFac= 1.78D+00 NAtFMM=   60 NAOKFM=F Big=F
 Integral buffers will be    131072 words long.
 Regular integral format.
 Two-electron integral symmetry is turned on.
 One-electron integrals computed using PRISM.
 NBasis=   248 RedAO= T EigKep=  1.07D-03  NBF=   146   102
 NBsUse=   248 1.00D-06 EigRej= -1.00D+00 NBFU=   146   102
 ExpMin= 1.21D-01 ExpMax= 4.56D+05 ExpMxC= 1.44D+03 IAcc=3 IRadAn=         5 AccDes= 0.00D+00
 Harris functional with IExCor=  419 and IRadAn=       5 diagonalized for initial guess.
 HarFok:  IExCor=  419 AccDes= 0.00D+00 IRadAn=         5 IDoV= 1 UseB2=F ITyADJ=14
 ICtDFT=  3500011 ScaDFX=  1.000000  1.000000  1.000000  1.000000
 FoFCou: FMM=F IPFlag=           0 FMFlag=      100000 FMFlg1=           0
         NFxFlg=           0 DoJE=T BraDBF=F KetDBF=T FulRan=T
         wScrn=  0.000000 ICntrl=       500 IOpCl=  0 I1Cent=   200000004 NGrid=           0
         NMat0=    1 NMatS0=      1 NMatT0=    0 NMatD0=    1 NMtDS0=    0 NMtDT0=    0
 Petite list used in FoFCou.
 Initial guess orbital symmetries:
       Occupied  (A') (A') (A') (A") (A') (A") (A') (A') (A') (A')
                 (A') (A') (A') (A") (A') (A") (A') (A') (A") (A")
                 (A') (A') (A') (A') (A") (A') (A") (A') (A') (A')
                 (A") (A") (A") (A') (A") (A') (A') (A') (A") (A")
                 (A')
       Virtual   (A') (A") (A') (A') (A') (A") (A') (A') (A') (A')
                 (A") (A') (A') (A") (A') (A") (A') (A") (A') (A')
                 (A') (A") (A") (A') (A") (A') (A") (A') (A') (A")
                 (A') (A') (A') (A") (A') (A") (A') (A') (A") (A")
                 (A") (A') (A') (A') (A") (A') (A") (A') (A') (A')
                 (A') (A") (A') (A') (A") (A") (A') (A") (A') (A')
                 (A') (A") (A") (A") (A') (A') (A") (A") (A') (A")
                 (A') (A") (A') (A") (A') (A') (A") (A') (A") (A')
                 (A") (A') (A") (A') (A") (A") (A") (A') (A') (A')
                 (A") (A') (A') (A") (A") (A') (A') (A") (A') (A')
                 (A') (A") (A') (A') (A') (A") (A') (A') (A') (A")
                 (A") (A') (A") (A') (A') (A') (A") (A') (A") (A')
                 (A') (A") (A') (A") (A") (A') (A") (A') (A") (A')
                 (A') (A") (A') (A') (A") (A') (A") (A') (A') (A')
                 (A") (A") (A') (A") (A") (A') (A') (A') (A') (A')
                 (A') (A") (A") (A") (A") (A') (A") (A') (A') (A")
                 (A') (A") (A") (A") (A') (A") (A') (A') (A') (A')
                 (A') (A') (A') (A") (A') (A") (A") (A') (A") (A")
                 (A") (A') (A") (A") (A") (A") (A') (A') (A') (A')
                 (A') (A") (A") (A') (A') (A") (A") (A') (A') (A")
                 (A") (A') (A') (A") (A') (A") (A')
 The electronic state of the initial guess is 1-A'.
 Requested convergence on RMS density matrix=1.00D-08 within 128 cycles.
 Requested convergence on MAX density matrix=1.00D-06.
 Requested convergence on             energy=1.00D-06.
 No special actions if energy rises.
 Integral accuracy reduced to 1.0D-05 until final iterations.
 Initial convergence to 1.0D-05 achieved.  Increase integral accuracy.
 SCF Done:  E(RB2PLYP) =  -1395.11633562     A.U. after   12 cycles
            NFock= 12  Conv=0.40D-08     -V/T= 2.0026
 DoSCS=T DFT=T ScalE2(SS,OS)=  0.270000  0.270000
 ExpMin= 1.21D-01 ExpMax= 4.56D+05 ExpMxC= 1.44D+03 IAcc=3 IRadAn=         5 AccDes= 0.00D+00
 HarFok:  IExCor=  205 AccDes= 0.00D+00 IRadAn=         5 IDoV=-2 UseB2=F ITyADJ=14
 ICtDFT= 12500011 ScaDFX=  1.000000  1.000000  1.000000  1.000000
 Range of M.O.s used for correlation:    17   248
 NBasis=   248 NAE=    41 NBE=    41 NFC=    16 NFV=     0
 NROrb=    232 NOA=    25 NOB=    25 NVA=   207 NVB=   207
 DoSCS=T DFT=T ScalE2(SS,OS)=  0.270000  0.270000
 Disk-based method using ON**2 memory for 25 occupieds at a time.
 Permanent disk used for amplitudes=    89512389 words.
 Estimated scratch disk usage=   685367336 words.
 Actual    scratch disk usage=   662609960 words.
 GetIJB would need an additional    72848332 words of memory to use all   4 processors.
 JobTyp=1 Pass  1:  I=  17 to  41 NPSUse=  2 ParTrn=F ParDer=T DoDerP=T.
 Spin components of T(2) and E(2):
     alpha-alpha T2 =       0.8731744151D-01 E2=     -0.7347551237D-01
     alpha-beta  T2 =       0.4462073284D+00 E2=     -0.4009395878D+00
     beta-beta   T2 =       0.8731744151D-01 E2=     -0.7347551237D-01
 E2(B2PLYP) =    -0.5478906126D+00 E(B2PLYP) =    -0.13956642262310D+04
 G2DrvN: will do     9 centers at a time, making    1 passes.
 Calling FoFCou, ICntrl=  3107 FMM=F I1Cent=   0 AccDes= 0.00D+00.
 End of G2Drv F.D. properties file   721 does not exist.
 End of G2Drv F.D. properties file   722 does not exist.
 End of G2Drv F.D. properties file   788 does not exist.
          IDoAtm=11111111
          Differentiating once with respect to electric field.
                with respect to dipole field.
          Differentiating once with respect to nuclear coordinates.
 CalDSu exits because no D1Ps are significant.
          There are    27 degrees of freedom in the 1st order CPHF.  IDoFFX=6 NUNeed=    27.
     24 vectors produced by pass  0 Test12= 3.14D-14 3.70D-09 XBig12= 3.01D+01 3.02D+00.
 AX will form    24 AO Fock derivatives at one time.
     24 vectors produced by pass  1 Test12= 3.14D-14 3.70D-09 XBig12= 2.81D+00 4.82D-01.
     24 vectors produced by pass  2 Test12= 3.14D-14 3.70D-09 XBig12= 1.29D-01 8.28D-02.
     24 vectors produced by pass  3 Test12= 3.14D-14 3.70D-09 XBig12= 7.06D-03 1.75D-02.
     24 vectors produced by pass  4 Test12= 3.14D-14 3.70D-09 XBig12= 9.04D-05 1.84D-03.
     24 vectors produced by pass  5 Test12= 3.14D-14 3.70D-09 XBig12= 5.85D-07 1.52D-04.
     24 vectors produced by pass  6 Test12= 3.14D-14 3.70D-09 XBig12= 2.55D-09 9.09D-06.
     10 vectors produced by pass  7 Test12= 3.14D-14 3.70D-09 XBig12= 1.13D-11 4.71D-07.
      3 vectors produced by pass  8 Test12= 3.14D-14 3.70D-09 XBig12= 4.79D-14 3.81D-08.
      1 vectors produced by pass  9 Test12= 3.14D-14 3.70D-09 XBig12= 2.84D-16 4.60D-09.
 InvSVY:  IOpt=1 It=  1 EMax= 1.78D-15
 Solved reduced A of dimension   182 with    27 vectors.
 End of Minotr F.D. properties file   721 does not exist.
 End of Minotr F.D. properties file   722 does not exist.
 End of Minotr F.D. properties file   788 does not exist.
 MDV=   104857600.
 DoSCS=T DFT=T ScalE2(SS,OS)=  0.270000  0.270000
 Form MO integral derivatives with frozen-active canonical formalism.
 Discarding MO integrals.
 Reordered first order wavefunction length =    144058338
 In DefCFB: NBatch=  1 ICI= 41 ICA=207 LFMax= 26
            Large arrays: LIAPS=  2424701952 LIARS=   667281888 words.
 Semi-Direct transformation.
 ModeAB=           4 MOrb=            41 LenV=     103194487
 LASXX=    277759666 LTotXX=   277759666 LenRXX=   559081207
 LTotAB=   281321541 MaxLAS=   263147840 LenRXY=           0
 NonZer=   836840873 LenScr=  1260189696 LnRSAI=   263147840
 LnScr1=   396997632 LExtra=           0 Total=   2479416375
 MaxDsk=          -1 SrtSym=           T ITran=            4
 JobTyp=0 Pass  1:  I=   1 to  41.
 DoSCS=T DFT=T ScalE2(SS,OS)=  0.270000  0.270000
 Spin components of T(2) and E(2):
     alpha-alpha T2 =       0.8731744151D-01 E2=     -0.7347551237D-01
     alpha-beta  T2 =       0.4462073284D+00 E2=     -0.4009395878D+00
     beta-beta   T2 =       0.8731744151D-01 E2=     -0.7347551237D-01
 E2(B2PLYP) =    -0.5478906126D+00 E(B2PLYP) =    -0.13956642262310D+04
          IDoAtm=11111111
          Differentiating once with respect to electric field.
                with respect to dipole field.
          Differentiating once with respect to nuclear coordinates.
          There are     1 degrees of freedom in the 1st order CPHF.  IDoFFX=0 NUNeed=     1.
 LinEq1:  Iter=  0 NonCon=     1 RMS=1.51D-03 Max=4.25D-02 NDo=     1
 AX will form     1 AO Fock derivatives at one time.
 LinEq1:  Iter=  1 NonCon=     1 RMS=6.87D-04 Max=2.06D-02 NDo=     1
 LinEq1:  Iter=  2 NonCon=     1 RMS=2.20D-04 Max=7.06D-03 NDo=     1
 LinEq1:  Iter=  3 NonCon=     1 RMS=7.16D-05 Max=1.73D-03 NDo=     1
 LinEq1:  Iter=  4 NonCon=     1 RMS=1.38D-05 Max=3.29D-04 NDo=     1
 LinEq1:  Iter=  5 NonCon=     1 RMS=8.03D-06 Max=2.43D-04 NDo=     1
 LinEq1:  Iter=  6 NonCon=     1 RMS=1.79D-06 Max=3.97D-05 NDo=     1
 LinEq1:  Iter=  7 NonCon=     1 RMS=5.35D-07 Max=1.73D-05 NDo=     1
 LinEq1:  Iter=  8 NonCon=     1 RMS=1.20D-07 Max=4.77D-06 NDo=     1
 LinEq1:  Iter=  9 NonCon=     1 RMS=2.43D-08 Max=5.81D-07 NDo=     1
 LinEq1:  Iter= 10 NonCon=     1 RMS=4.28D-09 Max=7.96D-08 NDo=     1
 LinEq1:  Iter= 11 NonCon=     1 RMS=1.93D-09 Max=3.97D-08 NDo=     1
 LinEq1:  Iter= 12 NonCon=     1 RMS=8.04D-10 Max=1.58D-08 NDo=     1
 LinEq1:  Iter= 13 NonCon=     1 RMS=2.48D-10 Max=5.35D-09 NDo=     1
 LinEq1:  Iter= 14 NonCon=     0 RMS=4.99D-11 Max=7.60D-10 NDo=     1
 Linear equations converged to 1.000D-10 1.000D-09 after    14 iterations.
 End of Minotr F.D. properties file   721 does not exist.
 End of Minotr F.D. properties file   722 does not exist.
 End of Minotr F.D. properties file   788 does not exist.
 Symmetrizing basis deriv contribution to polar:
 IMax=3 JMax=2 DiffMx= 0.00D+00
 G2DrvN: will do     9 centers at a time, making    1 passes.
 Calling FoFCou, ICntrl=  3107 FMM=F I1Cent=   0 AccDes= 0.00D+00.
 End of G2Drv F.D. properties file   721 does not exist.
 End of G2Drv F.D. properties file   722 does not exist.
 End of G2Drv F.D. properties file   788 does not exist.
 DoSCS=T DFT=T ScalE2(SS,OS)=  0.270000  0.270000
 Would need an additional  1639145114 words for in-memory AO integral storage.
 DD1Dir will call FoFJK  67 times, MxPair=        38
 NAB=   861 NAA=   820 NBB=     0 NumPrc=  4.
 FoFJK:  IHMeth= 1 ICntrl=     200 DoSepK=F KAlg= 0 I1Cent=           0 FoldK=F
 IRaf= 990000000 NMat=      38 IRICut=      47 DoRegI=T DoRafI=T ISym2E=-1 IDoP0=3 IntGTp=3.
 FoFCou: FMM=F IPFlag=           0 FMFlag=           0 FMFlg1=           0
         NFxFlg=           0 DoJE=F BraDBF=F KetDBF=F FulRan=T
         wScrn=  0.000000 ICntrl=       200 IOpCl=  0 I1Cent=           0 NGrid=           0
         NMat0=   38 NMatS0=      0 NMatT0=   19 NMatD0=   38 NMtDS0=    0 NMtDT0=    0
 Petite list used in FoFCou.
 Raff kept on since  47.03% of shell-pairs survive, threshold=   0.20 IRatSp=47.
 Discarding MO integrals.

 **********************************************************************

            Population analysis using the SCF Density.

 **********************************************************************

 Orbital symmetries:
       Occupied  (A') (A') (A") (A') (A") (A') (A') (A') (A') (A')
                 (A') (A') (A') (A") (A') (A") (A') (A') (A") (A")
                 (A') (A') (A') (A') (A') (A") (A") (A') (A') (A')
                 (A") (A") (A") (A') (A") (A') (A') (A') (A") (A")
                 (A')
       Virtual   (A') (A') (A") (A') (A') (A") (A') (A') (A') (A')
                 (A") (A') (A') (A") (A') (A") (A') (A") (A') (A')
                 (A') (A") (A") (A') (A") (A') (A") (A') (A") (A')
                 (A') (A') (A') (A') (A") (A") (A') (A') (A") (A")
                 (A') (A') (A") (A') (A") (A') (A") (A') (A') (A')
                 (A') (A") (A') (A') (A") (A") (A') (A") (A') (A')
                 (A') (A") (A") (A') (A") (A') (A") (A") (A') (A')
                 (A") (A") (A') (A') (A") (A') (A") (A') (A") (A')
                 (A") (A') (A") (A') (A") (A') (A') (A") (A") (A')
                 (A") (A') (A') (A") (A") (A') (A') (A') (A") (A')
                 (A') (A") (A') (A') (A') (A") (A') (A') (A') (A")
                 (A") (A') (A") (A') (A') (A') (A') (A") (A") (A')
                 (A') (A") (A') (A") (A') (A") (A") (A') (A") (A')
                 (A') (A") (A') (A') (A") (A') (A") (A') (A') (A')
                 (A") (A") (A') (A") (A") (A') (A') (A') (A') (A')
                 (A') (A") (A") (A") (A") (A') (A") (A') (A') (A")
                 (A") (A') (A') (A") (A") (A") (A') (A') (A') (A')
                 (A') (A') (A') (A") (A') (A") (A") (A') (A") (A")
                 (A") (A') (A") (A") (A") (A") (A') (A') (A') (A')
                 (A') (A") (A") (A') (A') (A") (A") (A') (A') (A")
                 (A") (A') (A') (A") (A') (A") (A')
 The electronic state is 1-A'.
 Alpha  occ. eigenvalues -- -102.97789-102.97767 -25.42545 -25.42544 -25.42543
 Alpha  occ. eigenvalues --  -25.42542 -10.90762 -10.90725  -9.96630  -9.96608
 Alpha  occ. eigenvalues --   -7.60684  -7.60662  -7.60008  -7.60008  -7.59986
 Alpha  occ. eigenvalues --   -7.59985  -1.49031  -1.47502  -1.42273  -1.41430
 Alpha  occ. eigenvalues --   -1.03290  -1.01587  -0.88812  -0.78755  -0.72470
 Alpha  occ. eigenvalues --   -0.71126  -0.67520  -0.67433  -0.64836  -0.60336
 Alpha  occ. eigenvalues --   -0.57987  -0.57933  -0.55409  -0.55040  -0.54181
 Alpha  occ. eigenvalues --   -0.52165  -0.46889  -0.43288  -0.42400  -0.41913
 Alpha  occ. eigenvalues --   -0.41280
 Alpha virt. eigenvalues --    0.01539   0.07439   0.08841   0.15690   0.21732
 Alpha virt. eigenvalues --    0.22061   0.22777   0.26287   0.30991   0.31084
 Alpha virt. eigenvalues --    0.33318   0.34750   0.38158   0.38910   0.39116
 Alpha virt. eigenvalues --    0.40189   0.40302   0.40473   0.42048   0.43657
 Alpha virt. eigenvalues --    0.46695   0.47686   0.51177   0.55516   0.57077
 Alpha virt. eigenvalues --    0.57286   0.57743   0.64279   0.67299   0.67347
 Alpha virt. eigenvalues --    0.74711   0.74894   0.79650   0.85408   0.87148
 Alpha virt. eigenvalues --    0.87912   0.90278   0.91968   0.94305   0.95009
 Alpha virt. eigenvalues --    0.96332   0.97465   0.98200   1.03040   1.04815
 Alpha virt. eigenvalues --    1.06118   1.07169   1.09888   1.15207   1.23487
 Alpha virt. eigenvalues --    1.25201   1.28635   1.34301   1.38273   1.40090
 Alpha virt. eigenvalues --    1.72119   1.73602   1.79277   1.81084   1.88745
 Alpha virt. eigenvalues --    1.95826   1.96751   1.97392   1.99680   1.99724
 Alpha virt. eigenvalues --    1.99848   2.01788   2.02116   2.04295   2.04592
 Alpha virt. eigenvalues --    2.05051   2.05297   2.06955   2.07762   2.09473
 Alpha virt. eigenvalues --    2.11071   2.11752   2.12236   2.12662   2.13108
 Alpha virt. eigenvalues --    2.17589   2.19435   2.20128   2.22146   2.23468
 Alpha virt. eigenvalues --    2.25708   2.25981   2.26242   2.27643   2.29936
 Alpha virt. eigenvalues --    2.30151   2.32255   2.35390   2.35623   2.36286
 Alpha virt. eigenvalues --    2.38078   2.43712   2.45312   2.46212   2.48595
 Alpha virt. eigenvalues --    2.55115   2.55884   2.56776   2.63837   2.67959
 Alpha virt. eigenvalues --    2.69882   2.75014   2.79000   2.90531   2.96326
 Alpha virt. eigenvalues --    2.96929   2.98031   3.04697   3.12438   3.21728
 Alpha virt. eigenvalues --    3.25438   3.31610   3.31862   3.32870   3.37915
 Alpha virt. eigenvalues --    3.40705   3.41430   3.45715   3.48879   3.48974
 Alpha virt. eigenvalues --    3.49073   3.58187   3.63417   3.69783   3.71006
 Alpha virt. eigenvalues --    3.82558   3.83716   3.87424   3.92354   3.97173
 Alpha virt. eigenvalues --    4.02995   4.12540   4.14981   4.26834   4.65974
 Alpha virt. eigenvalues --    4.93469   4.97582   5.04474   5.04760   5.05164
 Alpha virt. eigenvalues --    5.08447   5.13418   5.14977   5.43474   5.49387
 Alpha virt. eigenvalues --    5.91261   6.14890   6.17531   7.01668   7.02001
 Alpha virt. eigenvalues --    7.02205   7.02247   7.02398   7.02635   7.02690
 Alpha virt. eigenvalues --    7.03043   7.03198   7.04116   7.04206   7.05012
 Alpha virt. eigenvalues --    7.06345   7.09729   7.13404   7.17339   7.20335
 Alpha virt. eigenvalues --    7.22120   7.31554   7.33242   7.35552   7.39613
 Alpha virt. eigenvalues --    7.41529   7.42074   7.43647   7.52742   7.62259
 Alpha virt. eigenvalues --    7.67894   8.14099   8.48087   8.49425   8.51111
 Alpha virt. eigenvalues --    8.55563   8.55941   8.57054   8.58667   8.64861
 Alpha virt. eigenvalues --    8.81049   8.88438   8.89360   8.97177   9.02256
 Alpha virt. eigenvalues --    9.04652   9.07707   9.18278   9.22085   9.26695
 Alpha virt. eigenvalues --    9.31717   9.77328  10.54701  11.52889  11.94888
 Alpha virt. eigenvalues --   12.03451  12.09186
          Condensed to atoms (all electrons):
               1          2          3          4          5          6
     1  C    4.243608   0.320568   0.352962   0.368698   0.368698  -0.027213
     2  C    0.320568   4.243253  -0.048374  -0.027148  -0.027148   0.368700
     3  Cl   0.352962  -0.048374  16.873527  -0.047222  -0.047222  -0.000785
     4  F    0.368698  -0.027148  -0.047222   8.931638  -0.043756   0.000107
     5  F    0.368698  -0.027148  -0.047222  -0.043756   8.931638   0.000435
     6  F   -0.027213   0.368700  -0.000785   0.000107   0.000435   8.931644
     7  F   -0.027213   0.368700  -0.000785   0.000435   0.000107  -0.043797
     8  Cl  -0.048433   0.353080   0.002471  -0.000782  -0.000782  -0.047067
               7          8
     1  C   -0.027213  -0.048433
     2  C    0.368700   0.353080
     3  Cl  -0.000785   0.002471
     4  F    0.000435  -0.000782
     5  F    0.000107  -0.000782
     6  F   -0.043797  -0.047067
     7  F    8.931644  -0.047067
     8  Cl  -0.047067  16.872720
 Mulliken charges:
               1
     1  C    0.448326
     2  C    0.448370
     3  Cl  -0.084573
     4  F   -0.181969
     5  F   -0.181969
     6  F   -0.182023
     7  F   -0.182023
     8  Cl  -0.084140
 Sum of Mulliken charges =  -0.00000
 Mulliken charges with hydrogens summed into heavy atoms:
               1
     1  C    0.448326
     2  C    0.448370
     3  Cl  -0.084573
     4  F   -0.181969
     5  F   -0.181969
     6  F   -0.182023
     7  F   -0.182023
     8  Cl  -0.084140
 APT charges:
               1
     1  C    1.283107
     2  C    1.283126
     3  Cl  -0.287852
     4  F   -0.497699
     5  F   -0.497699
     6  F   -0.497654
     7  F   -0.497654
     8  Cl  -0.287675
 Sum of APT charges =  -0.00000
 APT charges with hydrogens summed into heavy atoms:
               1
     1  C    1.283107
     2  C    1.283126
     3  Cl  -0.287852
     4  F   -0.497699
     5  F   -0.497699
     6  F   -0.497654
     7  F   -0.497654
     8  Cl  -0.287675
 Electronic spatial extent (au):  <R**2>=           1147.2049
 Charge=              0.0000 electrons
 Dipole moment (field-independent basis, Debye):
    X=              0.0073    Y=              0.0012    Z=              0.0000  Tot=              0.0074
 Quadrupole moment (field-independent basis, Debye-Ang):
   XX=            -52.6448   YY=            -58.2723   ZZ=            -57.8729
   XY=              0.4879   XZ=              0.0000   YZ=              0.0000
 Traceless Quadrupole moment (field-independent basis, Debye-Ang):
   XX=              3.6185   YY=             -2.0089   ZZ=             -1.6096
   XY=              0.4879   XZ=              0.0000   YZ=              0.0000
 Octapole moment (field-independent basis, Debye-Ang**2):
  XXX=              0.0307  YYY=              0.0032  ZZZ=              0.0000  XYY=              0.0030
  XXY=             -0.0014  XXZ=             -0.0000  XZZ=              0.0013  YZZ=              0.0006
  YYZ=             -0.0000  XYZ=              0.0000
 Hexadecapole moment (field-independent basis, Debye-Ang**3):
 XXXX=           -665.2467 YYYY=           -354.9162 ZZZZ=           -185.9899 XXXY=            -84.4753
 XXXZ=             -0.0000 YYYX=            -90.1129 YYYZ=              0.0000 ZZZX=             -0.0000
 ZZZY=              0.0000 XXYY=           -182.4226 XXZZ=           -155.5960 YYZZ=            -93.3905
 XXYZ=             -0.0000 YYXZ=              0.0000 ZZXY=            -30.8193
 N-N= 6.035859974614D+02 E-N=-4.523480395877D+03  KE= 1.391515347873D+03
 Symmetry A'   KE= 1.096962763789D+03
 Symmetry A"   KE= 2.945525840837D+02
  Exact polarizability:      68.049       1.014      41.676       0.000      -0.000      39.707
 Approx polarizability:      75.187      -2.968      49.765      -0.000      -0.000      51.561
 Calling FoFJK, ICntrl=  10100127 FMM=F ISym2X=1 I1Cent= 0 IOpClX= 0 NMat=1 NMatS=1 NMatT=0.
 ***** Axes restored to original set *****
 -------------------------------------------------------------------
 Center     Atomic                   Forces (Hartrees/Bohr)
 Number     Number              X              Y              Z
 -------------------------------------------------------------------
      1        6          -0.011665099   -0.000000000   -0.034848778
      2        6           0.012026480   -0.000000000    0.034456282
      3       17          -0.006732368   -0.000000000    0.007871118
      4        9           0.010242120   -0.012810311    0.015179397
      5        9           0.010242120    0.012810311    0.015179397
      6        9          -0.010453400   -0.012822763   -0.015059227
      7        9          -0.010453400    0.012822763   -0.015059227
      8       17           0.006793547    0.000000000   -0.007718962
 -------------------------------------------------------------------
 Cartesian Forces:  Max     0.034848778 RMS     0.014281675
 -----------------------------------------------------------------------------------------------
                       Internal Coordinate Forces (Hartree/Bohr or radian)
  Cent   Atom   N1       Length/X         N2         Alpha/Y        N3         Beta/Z          J
 -----------------------------------------------------------------------------------------------
      1  C 
      2  C        1  -0.003381(     1)
      3  Cl       1  -0.009216(     2)      2  -0.015946(     8)
      4  F        1  -0.020615(     3)      2  -0.021540(     9)      3   0.005083(    14)     0
      5  F        1  -0.020615(     4)      2  -0.021540(    10)      3  -0.005083(    15)     0
      6  F        2  -0.020681(     5)      1  -0.021178(    11)      3   0.005476(    16)     0
      7  F        2  -0.020681(     6)      1  -0.021178(    12)      3  -0.005476(    17)     0
      8  Cl       2  -0.009211(     7)      1  -0.015411(    13)      3  -0.000000(    18)     0
 -----------------------------------------------------------------------------------------------
 Internal  Forces:  Max     0.021540093 RMS     0.015482832

 GradGradGradGradGradGradGradGradGradGradGradGradGradGradGradGradGradGrad
 Berny optimization.
 Search for a local minimum.
 Step number   1 out of a maximum of   28
 All quantities printed in internal units (Hartrees-Bohrs-Radians)
 Second derivative matrix not updated -- analytic derivatives used.
 The second derivative matrix:
                          r2        r3        a3        r4        a4
           r2           0.26703
           r3           0.01072   0.19835
           a3           0.03268  -0.01149   0.39766
           r4           0.01631   0.03817  -0.03615   0.33790
           a4           0.03164  -0.03670   0.13405  -0.00730   0.42370
           d4           0.00710  -0.04814   0.08701   0.01356  -0.00820
           r5           0.01631   0.03817  -0.03615   0.05043  -0.03805
           a5           0.03164  -0.03670   0.13405  -0.03805   0.15319
           d5          -0.00710   0.04814  -0.08701  -0.06364   0.10711
           r6           0.01635   0.00294   0.00009   0.00384  -0.00048
           a6           0.03172   0.00181   0.01373  -0.00048  -0.00022
           d6           0.00710  -0.00311   0.01019   0.00646   0.00034
           r7           0.01635   0.00294   0.00009   0.00256   0.01730
           a7           0.03172   0.00181   0.01373   0.01730   0.03902
           d7          -0.00710   0.00311  -0.01019  -0.00073   0.00158
           r8           0.01075   0.00184   0.00963   0.00294   0.00180
           a8           0.03270   0.00963   0.02202   0.00011   0.01370
           d8          -0.00000   0.00000  -0.00000  -0.00502   0.00899
                          d4        r5        a5        d5        r6
           d4           0.42294
           r5           0.06364   0.33790
           a5          -0.10711  -0.00730   0.42370
           d5          -0.23826  -0.01356   0.00820   0.42294
           r6           0.00647   0.00256   0.01730  -0.00073   0.33772
           a6           0.00034   0.01730   0.03902   0.00159  -0.00700
           d6          -0.00047   0.00073  -0.00158   0.00651   0.01384
           r7           0.00073   0.00384  -0.00048  -0.00647   0.05046
           a7          -0.00159  -0.00048  -0.00022  -0.00034  -0.03801
           d7           0.00651  -0.00646  -0.00034  -0.00047  -0.06378
           r8          -0.00311   0.00294   0.00180   0.00311   0.03809
           a8           0.01018   0.00011   0.01370  -0.01018  -0.03601
           d8           0.00663   0.00502  -0.00899   0.00663   0.05065
                          a6        d6        r7        a7        d7
           a6           0.42346
           d6          -0.00835   0.42305
           r7          -0.03801   0.06378   0.33772
           a7           0.15311  -0.10711  -0.00700   0.42346
           d7           0.10711  -0.23874  -0.01384   0.00835   0.42305
           r8          -0.03655  -0.04797   0.03809  -0.03655   0.04797
           a8           0.13370   0.08676  -0.03601   0.13370  -0.08676
           d8          -0.08784  -0.17169  -0.05065   0.08784  -0.17169
                          r8        a8        d8
           r8           0.19861
           a8          -0.01107   0.39741
           d8          -0.00000  -0.00000   0.35660
 ITU=  0
     Eigenvalues ---    0.01167   0.09883   0.12371   0.14906   0.15567
     Eigenvalues ---    0.23402   0.23601   0.26433   0.28762   0.31534
     Eigenvalues ---    0.35372   0.36419   0.41445   0.61834   0.65345
     Eigenvalues ---    0.72989   0.75771   0.78519
 RFO step:  Lambda=-8.94526199D-03 EMin= 1.16694791D-02
 Linear search not attempted -- first point.
 Variable       Old X    -DE/DX   Delta X   Delta X   Delta X     New X
                                 (Linear)    (Quad)   (Total)
    r2        2.90904  -0.00338   0.00000   0.02339   0.02339   2.93243
    r3        3.37278  -0.00922   0.00000  -0.02689  -0.02689   3.34590
    a3        1.96000  -0.01595   0.00000  -0.03419  -0.03419   1.92582
    r4        2.57532  -0.02062   0.00000  -0.05705  -0.05705   2.51827
    a4        1.93627  -0.02154   0.00000  -0.02942  -0.02942   1.90685
    d4        4.16715   0.00508   0.00000   0.01244   0.01244   4.17959
    r5        2.57532  -0.02062   0.00000  -0.05705  -0.05705   2.51827
    a5        1.93627  -0.02154   0.00000  -0.02942  -0.02942   1.90685
    d5        2.11604  -0.00508   0.00000  -0.01244  -0.01244   2.10360
    r6        2.57551  -0.02068   0.00000  -0.05725  -0.05725   2.51825
    a6        1.93557  -0.02118   0.00000  -0.02872  -0.02872   1.90685
    d6        1.02486   0.00548   0.00000   0.01315   0.01315   1.03800
    r7        2.57551  -0.02068   0.00000  -0.05725  -0.05725   2.51825
    a7        1.93557  -0.02118   0.00000  -0.02872  -0.02872   1.90685
    d7        5.25833  -0.00548   0.00000  -0.01315  -0.01315   5.24518
    r8        3.37203  -0.00921   0.00000  -0.02608  -0.02608   3.34595
    a8        1.95931  -0.01541   0.00000  -0.03350  -0.03350   1.92581
    d8        3.14159  -0.00000   0.00000   0.00000   0.00000   3.14159
         Item               Value     Threshold  Converged?
 Maximum Force            0.021540     0.000002     NO 
 RMS     Force            0.015483     0.000001     NO 
 Maximum Displacement     0.057253     0.000006     NO 
 RMS     Displacement     0.034435     0.000004     NO 
 Predicted change in Energy=-4.568093D-03
 GradGradGradGradGradGradGradGradGradGradGradGradGradGradGradGradGradGrad

 ---------------------------------------------------------------------------------------------------
                            Z-MATRIX (ANGSTROMS AND DEGREES)
   CD    Cent   Atom    N1       Length/X        N2       Alpha/Y        N3        Beta/Z          J
 ---------------------------------------------------------------------------------------------------
      1      1  C 
      2      2  C        1   1.551776(     1)
      3      3  Cl       1   1.770572(     2)      2  110.341(     8)
      4      4  F        1   1.332609(     3)      2  109.254(     9)      3  239.473(    14)      0
      5      5  F        1   1.332609(     4)      2  109.254(    10)      3  120.527(    15)      0
      6      6  F        2   1.332603(     5)      1  109.254(    11)      3   59.473(    16)      0
      7      7  F        2   1.332603(     6)      1  109.254(    12)      3  300.527(    17)      0
      8      8  Cl       2   1.770600(     7)      1  110.341(    13)      3  180.000(    18)      0
 ---------------------------------------------------------------------------------------------------
                         Z-Matrix orientation:                         
 ---------------------------------------------------------------------
 Center     Atomic      Atomic             Coordinates (Angstroms)
 Number     Number       Type             X           Y           Z
 ---------------------------------------------------------------------
      1          6           0        0.000000    0.000000    0.000000
      2          6           0        0.000000    0.000000    1.551776
      3         17           0        1.660159    0.000000   -0.615467
      4          9           0       -0.639032    1.083686   -0.439442
      5          9           0       -0.639032   -1.083686   -0.439442
      6          9           0        0.639021    1.083686    1.991215
      7          9           0        0.639021   -1.083686    1.991215
      8         17           0       -1.660188   -0.000000    2.167243
 ---------------------------------------------------------------------
                    Distance matrix (angstroms):
                    1          2          3          4          5
     1  C    0.000000
     2  C    1.551776   0.000000
     3  Cl   1.770572   2.730031   0.000000
     4  F    1.332609   2.355353   2.547870   0.000000
     5  F    1.332609   2.355353   2.547870   2.167372   0.000000
     6  F    2.355348   1.332603   3.001981   2.746182   3.498431
     7  F    2.355348   1.332603   3.001981   3.498431   2.746182
     8  Cl   2.730049   1.770600   4.332225   3.001990   3.001990
                    6          7          8
     6  F    0.000000
     7  F    2.167373   0.000000
     8  Cl   2.547886   2.547886   0.000000
 Stoichiometry    C2Cl2F4
 Framework group  CS[SG(C2Cl2),X(F4)]
 Deg. of freedom    11
 Full point group                 CS      NOp   2
 Largest Abelian subgroup         CS      NOp   2
 Largest concise Abelian subgroup CS      NOp   2
                         Standard orientation:                         
 ---------------------------------------------------------------------
 Center     Atomic      Atomic             Coordinates (Angstroms)
 Number     Number       Type             X           Y           Z
 ---------------------------------------------------------------------
      1          6           0       -0.361100   -0.686737   -0.000000
      2          6           0        0.361086    0.686746    0.000000
      3         17           0       -2.116947   -0.458863    0.000000
      4          9           0       -0.000003   -1.373091    1.083686
      5          9           0       -0.000003   -1.373091   -1.083686
      6          9           0       -0.000003    1.373092    1.083686
      7          9           0       -0.000003    1.373092   -1.083686
      8         17           0        2.116959    0.458859   -0.000000
 ---------------------------------------------------------------------
 Rotational constants (GHZ):           2.2177316           1.1578391           1.0401407
 Standard basis: CC-pVTZ (5D, 7F)
 There are   172 symmetry adapted cartesian basis functions of A'  symmetry.
 There are   116 symmetry adapted cartesian basis functions of A"  symmetry.
 There are   146 symmetry adapted basis functions of A'  symmetry.
 There are   102 symmetry adapted basis functions of A"  symmetry.
   248 basis functions,   500 primitive gaussians,   288 cartesian basis functions
    41 alpha electrons       41 beta electrons
       nuclear repulsion energy       612.6552902271 Hartrees.
 NAtoms=    8 NActive=    8 NUniq=    6 SFac= 1.78D+00 NAtFMM=   60 NAOKFM=F Big=F
 Integral buffers will be    131072 words long.
 Regular integral format.
 Two-electron integral symmetry is turned on.
 One-electron integrals computed using PRISM.
 NBasis=   248 RedAO= T EigKep=  1.09D-03  NBF=   146   102
 NBsUse=   248 1.00D-06 EigRej= -1.00D+00 NBFU=   146   102
 Initial guess from the checkpoint file:  "checkpoint.chk"
 B after Tr=     0.000000   -0.000000   -0.000000
         Rot=    0.999973   -0.000000   -0.000000    0.007358 Ang=   0.84 deg.
 Initial guess orbital symmetries:
       Occupied  (A') (A') (A") (A') (A") (A') (A') (A') (A') (A')
                 (A') (A') (A') (A") (A') (A") (A') (A') (A") (A")
                 (A') (A') (A') (A') (A') (A") (A") (A') (A') (A')
                 (A") (A") (A") (A') (A") (A') (A') (A') (A") (A")
                 (A')
       Virtual   (A') (A') (A") (A') (A') (A") (A') (A') (A') (A')
                 (A") (A') (A') (A") (A') (A") (A') (A") (A') (A')
                 (A') (A") (A") (A') (A") (A') (A") (A') (A") (A')
                 (A') (A') (A') (A') (A") (A") (A') (A') (A") (A")
                 (A') (A') (A") (A') (A") (A') (A") (A') (A') (A')
                 (A') (A") (A') (A') (A") (A") (A') (A") (A') (A')
                 (A') (A") (A") (A') (A") (A') (A") (A") (A') (A')
                 (A") (A") (A') (A') (A") (A') (A") (A') (A") (A')
                 (A") (A') (A") (A') (A") (A') (A') (A") (A") (A')
                 (A") (A') (A') (A") (A") (A') (A') (A') (A") (A')
                 (A') (A") (A') (A') (A') (A") (A') (A') (A') (A")
                 (A") (A') (A") (A') (A') (A') (A') (A") (A") (A')
                 (A') (A") (A') (A") (A') (A") (A") (A') (A") (A')
                 (A') (A") (A') (A') (A") (A') (A") (A') (A') (A')
                 (A") (A") (A') (A") (A") (A') (A') (A') (A') (A')
                 (A') (A") (A") (A") (A") (A') (A") (A') (A') (A")
                 (A") (A') (A') (A") (A") (A") (A') (A') (A') (A')
                 (A') (A') (A') (A") (A') (A") (A") (A') (A") (A")
                 (A") (A') (A") (A") (A") (A") (A') (A') (A') (A')
                 (A') (A") (A") (A') (A') (A") (A") (A') (A') (A")
                 (A") (A') (A') (A") (A') (A") (A')
 ExpMin= 1.21D-01 ExpMax= 4.56D+05 ExpMxC= 1.44D+03 IAcc=3 IRadAn=         5 AccDes= 0.00D+00
 Harris functional with IExCor=  419 and IRadAn=       5 diagonalized for initial guess.
 HarFok:  IExCor=  419 AccDes= 0.00D+00 IRadAn=         5 IDoV= 1 UseB2=F ITyADJ=14
 ICtDFT=  3500011 ScaDFX=  1.000000  1.000000  1.000000  1.000000
 FoFCou: FMM=F IPFlag=           0 FMFlag=      100000 FMFlg1=           0
         NFxFlg=           0 DoJE=T BraDBF=F KetDBF=T FulRan=T
         wScrn=  0.000000 ICntrl=       500 IOpCl=  0 I1Cent=   200000004 NGrid=           0
         NMat0=    1 NMatS0=      1 NMatT0=    0 NMatD0=    1 NMtDS0=    0 NMtDT0=    0
 Petite list used in FoFCou.
 Requested convergence on RMS density matrix=1.00D-08 within 128 cycles.
 Requested convergence on MAX density matrix=1.00D-06.
 Requested convergence on             energy=1.00D-06.
 No special actions if energy rises.
 Integral accuracy reduced to 1.0D-05 until final iterations.
 Initial convergence to 1.0D-05 achieved.  Increase integral accuracy.
 SCF Done:  E(RB2PLYP) =  -1395.12350551     A.U. after   11 cycles
            NFock= 11  Conv=0.29D-08     -V/T= 2.0024
 DoSCS=T DFT=T ScalE2(SS,OS)=  0.270000  0.270000
 ExpMin= 1.21D-01 ExpMax= 4.56D+05 ExpMxC= 1.44D+03 IAcc=3 IRadAn=         5 AccDes= 0.00D+00
 HarFok:  IExCor=  205 AccDes= 0.00D+00 IRadAn=         5 IDoV=-2 UseB2=F ITyADJ=14
 ICtDFT= 12500011 ScaDFX=  1.000000  1.000000  1.000000  1.000000
 Range of M.O.s used for correlation:    17   248
 NBasis=   248 NAE=    41 NBE=    41 NFC=    16 NFV=     0
 NROrb=    232 NOA=    25 NOB=    25 NVA=   207 NVB=   207
 DoSCS=T DFT=T ScalE2(SS,OS)=  0.270000  0.270000
 Disk-based method using ON**2 memory for 25 occupieds at a time.
 Permanent disk used for amplitudes=    89512389 words.
 Estimated scratch disk usage=   690507392 words.
 Actual    scratch disk usage=   667838080 words.
 GetIJB would need an additional    72850374 words of memory to use all   4 processors.
 JobTyp=1 Pass  1:  I=  17 to  41 NPSUse=  2 ParTrn=F ParDer=T DoDerP=T.
 Spin components of T(2) and E(2):
     alpha-alpha T2 =       0.8581122902D-01 E2=     -0.7324393695D-01
     alpha-beta  T2 =       0.4364511793D+00 E2=     -0.3985616096D+00
     beta-beta   T2 =       0.8581122902D-01 E2=     -0.7324393695D-01
 E2(B2PLYP) =    -0.5450494835D+00 E(B2PLYP) =    -0.13956685549928D+04
 G2DrvN: will do     9 centers at a time, making    1 passes.
 Calling FoFCou, ICntrl=  3107 FMM=F I1Cent=   0 AccDes= 0.00D+00.
 End of G2Drv F.D. properties file   721 does not exist.
 End of G2Drv F.D. properties file   722 does not exist.
 End of G2Drv F.D. properties file   788 does not exist.
          IDoAtm=11111111
          Differentiating once with respect to electric field.
                with respect to dipole field.
          Differentiating once with respect to nuclear coordinates.
 CalDSu exits because no D1Ps are significant.
          There are    27 degrees of freedom in the 1st order CPHF.  IDoFFX=6 NUNeed=    27.
     24 vectors produced by pass  0 Test12= 3.14D-14 3.70D-09 XBig12= 2.89D+01 2.77D+00.
 AX will form    24 AO Fock derivatives at one time.
     24 vectors produced by pass  1 Test12= 3.14D-14 3.70D-09 XBig12= 2.60D+00 4.61D-01.
     24 vectors produced by pass  2 Test12= 3.14D-14 3.70D-09 XBig12= 1.18D-01 7.99D-02.
     24 vectors produced by pass  3 Test12= 3.14D-14 3.70D-09 XBig12= 7.06D-03 1.99D-02.
     24 vectors produced by pass  4 Test12= 3.14D-14 3.70D-09 XBig12= 9.54D-05 1.70D-03.
     24 vectors produced by pass  5 Test12= 3.14D-14 3.70D-09 XBig12= 6.07D-07 1.52D-04.
     24 vectors produced by pass  6 Test12= 3.14D-14 3.70D-09 XBig12= 2.81D-09 8.88D-06.
     11 vectors produced by pass  7 Test12= 3.14D-14 3.70D-09 XBig12= 1.35D-11 5.62D-07.
      3 vectors produced by pass  8 Test12= 3.14D-14 3.70D-09 XBig12= 5.35D-14 4.42D-08.
 InvSVY:  IOpt=1 It=  1 EMax= 2.22D-15
 Solved reduced A of dimension   182 with    27 vectors.
 End of Minotr F.D. properties file   721 does not exist.
 End of Minotr F.D. properties file   722 does not exist.
 End of Minotr F.D. properties file   788 does not exist.
 MDV=   104857600.
 DoSCS=T DFT=T ScalE2(SS,OS)=  0.270000  0.270000
 Form MO integral derivatives with frozen-active canonical formalism.
 Discarding MO integrals.
 Reordered first order wavefunction length =    144058338
 In DefCFB: NBatch=  1 ICI= 41 ICA=207 LFMax= 26
            Large arrays: LIAPS=  2424701952 LIARS=   667281888 words.
 Semi-Direct transformation.
 ModeAB=           4 MOrb=            41 LenV=     103192128
 LASXX=    277759666 LTotXX=   277759666 LenRXX=   559081207
 LTotAB=   281321541 MaxLAS=   263818928 LenRXY=           0
 NonZer=   836840873 LenScr=  1260189696 LnRSAI=   263818928
 LnScr1=   397993984 LExtra=           0 Total=   2481083815
 MaxDsk=          -1 SrtSym=           T ITran=            4
 JobTyp=0 Pass  1:  I=   1 to  41.
 DoSCS=T DFT=T ScalE2(SS,OS)=  0.270000  0.270000
 Spin components of T(2) and E(2):
     alpha-alpha T2 =       0.8581122902D-01 E2=     -0.7324393695D-01
     alpha-beta  T2 =       0.4364511793D+00 E2=     -0.3985616096D+00
     beta-beta   T2 =       0.8581122902D-01 E2=     -0.7324393695D-01
 E2(B2PLYP) =    -0.5450494835D+00 E(B2PLYP) =    -0.13956685549928D+04
          IDoAtm=11111111
          Differentiating once with respect to electric field.
                with respect to dipole field.
          Differentiating once with respect to nuclear coordinates.
          There are     1 degrees of freedom in the 1st order CPHF.  IDoFFX=0 NUNeed=     1.
 LinEq1:  Iter=  0 NonCon=     1 RMS=1.45D-03 Max=3.71D-02 NDo=     1
 AX will form     1 AO Fock derivatives at one time.
 LinEq1:  Iter=  1 NonCon=     1 RMS=6.28D-04 Max=1.83D-02 NDo=     1
 LinEq1:  Iter=  2 NonCon=     1 RMS=1.97D-04 Max=6.10D-03 NDo=     1
 LinEq1:  Iter=  3 NonCon=     1 RMS=6.42D-05 Max=1.64D-03 NDo=     1
 LinEq1:  Iter=  4 NonCon=     1 RMS=1.26D-05 Max=2.92D-04 NDo=     1
 LinEq1:  Iter=  5 NonCon=     1 RMS=7.24D-06 Max=2.32D-04 NDo=     1
 LinEq1:  Iter=  6 NonCon=     1 RMS=1.56D-06 Max=3.41D-05 NDo=     1
 LinEq1:  Iter=  7 NonCon=     1 RMS=4.53D-07 Max=1.17D-05 NDo=     1
 LinEq1:  Iter=  8 NonCon=     1 RMS=9.69D-08 Max=3.38D-06 NDo=     1
 LinEq1:  Iter=  9 NonCon=     1 RMS=1.93D-08 Max=5.10D-07 NDo=     1
 LinEq1:  Iter= 10 NonCon=     1 RMS=2.73D-09 Max=8.32D-08 NDo=     1
 LinEq1:  Iter= 11 NonCon=     1 RMS=7.55D-10 Max=1.75D-08 NDo=     1
 LinEq1:  Iter= 12 NonCon=     1 RMS=2.28D-10 Max=7.69D-09 NDo=     1
 LinEq1:  Iter= 13 NonCon=     1 RMS=8.50D-11 Max=1.74D-09 NDo=     1
 LinEq1:  Iter= 14 NonCon=     0 RMS=3.56D-11 Max=4.59D-10 NDo=     1
 Linear equations converged to 1.000D-10 1.000D-09 after    14 iterations.
 End of Minotr F.D. properties file   721 does not exist.
 End of Minotr F.D. properties file   722 does not exist.
 End of Minotr F.D. properties file   788 does not exist.
 Symmetrizing basis deriv contribution to polar:
 IMax=3 JMax=2 DiffMx= 0.00D+00
 G2DrvN: will do     9 centers at a time, making    1 passes.
 Calling FoFCou, ICntrl=  3107 FMM=F I1Cent=   0 AccDes= 0.00D+00.
 End of G2Drv F.D. properties file   721 does not exist.
 End of G2Drv F.D. properties file   722 does not exist.
 End of G2Drv F.D. properties file   788 does not exist.
 DoSCS=T DFT=T ScalE2(SS,OS)=  0.270000  0.270000
 Would need an additional  1639145114 words for in-memory AO integral storage.
 DD1Dir will call FoFJK  67 times, MxPair=        38
 NAB=   861 NAA=   820 NBB=     0 NumPrc=  4.
 FoFJK:  IHMeth= 1 ICntrl=     200 DoSepK=F KAlg= 0 I1Cent=           0 FoldK=F
 IRaf= 990000000 NMat=      38 IRICut=      47 DoRegI=T DoRafI=T ISym2E=-1 IDoP0=3 IntGTp=3.
 FoFCou: FMM=F IPFlag=           0 FMFlag=           0 FMFlg1=           0
         NFxFlg=           0 DoJE=F BraDBF=F KetDBF=F FulRan=T
         wScrn=  0.000000 ICntrl=       200 IOpCl=  0 I1Cent=           0 NGrid=           0
         NMat0=   38 NMatS0=      0 NMatT0=   19 NMatD0=   38 NMtDS0=    0 NMtDT0=    0
 Petite list used in FoFCou.
 Raff kept on since  48.15% of shell-pairs survive, threshold=   0.20 IRatSp=48.
 Discarding MO integrals.
 Calling FoFJK, ICntrl=  10100127 FMM=F ISym2X=1 I1Cent= 0 IOpClX= 0 NMat=1 NMatS=1 NMatT=0.
 ***** Axes restored to original set *****
 -------------------------------------------------------------------
 Center     Atomic                   Forces (Hartrees/Bohr)
 Number     Number              X              Y              Z
 -------------------------------------------------------------------
      1        6           0.001204031    0.000000000    0.000706192
      2        6          -0.001216324    0.000000000   -0.000707277
      3       17           0.000300263    0.000000000   -0.000174821
      4        9          -0.000913272    0.001583806   -0.000902979
      5        9          -0.000913272   -0.001583806   -0.000902979
      6        9           0.000914814    0.001585041    0.000905064
      7        9           0.000914814   -0.001585041    0.000905064
      8       17          -0.000291053    0.000000000    0.000171735
 -------------------------------------------------------------------
 Cartesian Forces:  Max     0.001585041 RMS     0.000931297
 -----------------------------------------------------------------------------------------------
                       Internal Coordinate Forces (Hartree/Bohr or radian)
  Cent   Atom   N1       Length/X         N2         Alpha/Y        N3         Beta/Z          J
 -----------------------------------------------------------------------------------------------
      1  C 
      2  C        1   0.001275(     1)
      3  Cl       1   0.000342(     2)      2   0.000199(     8)
      4  F        1   0.002024(     3)      2   0.000629(     9)      3   0.000042(    14)     0
      5  F        1   0.002024(     4)      2   0.000629(    10)      3  -0.000042(    15)     0
      6  F        2   0.002026(     5)      1   0.000632(    11)      3   0.000041(    16)     0
      7  F        2   0.002026(     6)      1   0.000632(    12)      3  -0.000041(    17)     0
      8  Cl       2   0.000333(     7)      1   0.000200(    13)      3  -0.000000(    18)     0
 -----------------------------------------------------------------------------------------------
 Internal  Forces:  Max     0.002026105 RMS     0.001052218

 GradGradGradGradGradGradGradGradGradGradGradGradGradGradGradGradGradGrad
 Berny optimization.
 Search for a local minimum.
 Step number   2 out of a maximum of   28
 All quantities printed in internal units (Hartrees-Bohrs-Radians)
 Second derivative matrix not updated -- analytic derivatives used.
 DE= -4.33D-03 DEPred=-4.57D-03 R= 9.48D-01
 TightC=F SS=  1.41D+00  RLast= 1.46D-01 DXNew= 5.0454D-01 4.3828D-01
 Trust test= 9.48D-01 RLast= 1.46D-01 DXMaxT set to 4.38D-01
 The second derivative matrix:
                          r2        r3        a3        r4        a4
           r2           0.26427
           r3           0.01268   0.21674
           a3           0.03953  -0.00090   0.42032
           r4           0.01924   0.03998  -0.03464   0.41226
           a4           0.04002  -0.03672   0.13068   0.00837   0.44809
           d4           0.00837  -0.05013   0.08733   0.01023  -0.00458
           r5           0.01924   0.03998  -0.03464   0.05253  -0.03473
           a5           0.04002  -0.03672   0.13068  -0.03473   0.14867
           d5          -0.00837   0.05013  -0.08733  -0.06252   0.10552
           r6           0.01924   0.00323  -0.00006   0.00444  -0.00095
           a6           0.04002   0.00238   0.01823  -0.00095   0.00132
           d6           0.00837  -0.00325   0.01424   0.00742  -0.00023
           r7           0.01924   0.00323  -0.00006   0.00413   0.02045
           a7           0.04002   0.00238   0.01823   0.02045   0.04447
           d7          -0.00837   0.00325  -0.01424  -0.00067   0.00167
           r8           0.01267   0.00223   0.01037   0.00323   0.00238
           a8           0.03953   0.01037   0.02243  -0.00006   0.01823
           d8          -0.00000  -0.00000  -0.00000  -0.00592   0.01229
                          d4        r5        a5        d5        r6
           d4           0.43442
           r5           0.06252   0.41226
           a5          -0.10552   0.00837   0.44809
           d5          -0.23774  -0.01023   0.00458   0.43442
           r6           0.00742   0.00413   0.02045  -0.00067   0.41227
           a6          -0.00023   0.02045   0.04447   0.00167   0.00837
           d6           0.00004   0.00067  -0.00167   0.00697   0.01023
           r7           0.00067   0.00444  -0.00095  -0.00742   0.05253
           a7          -0.00167  -0.00095   0.00132   0.00023  -0.03473
           d7           0.00697  -0.00742   0.00023   0.00004  -0.06252
           r8          -0.00325   0.00323   0.00238   0.00325   0.03998
           a8           0.01424  -0.00006   0.01823  -0.01424  -0.03464
           d8           0.00886   0.00592  -0.01229   0.00886   0.05312
                          a6        d6        r7        a7        d7
           a6           0.44809
           d6          -0.00458   0.43442
           r7          -0.03473   0.06252   0.41227
           a7           0.14867  -0.10552   0.00837   0.44809
           d7           0.10552  -0.23773  -0.01023   0.00458   0.43442
           r8          -0.03672  -0.05013   0.03998  -0.03672   0.05013
           a8           0.13068   0.08733  -0.03464   0.13068  -0.08733
           d8          -0.08724  -0.18085  -0.05312   0.08724  -0.18085
                          r8        a8        d8
           r8           0.21672
           a8          -0.00090   0.42031
           d8          -0.00000   0.00000   0.37934
 ITU=  1  0
     Eigenvalues ---    0.01475   0.11391   0.13409   0.16452   0.18363
     Eigenvalues ---    0.23354   0.27223   0.28831   0.34114   0.36995
     Eigenvalues ---    0.41570   0.44086   0.49394   0.65194   0.65938
     Eigenvalues ---    0.75415   0.76166   0.80308
 RFO step:  Lambda=-1.41369650D-05 EMin= 1.47503984D-02
 Quintic linear search produced a step of -0.05251.
 Variable       Old X    -DE/DX   Delta X   Delta X   Delta X     New X
                                 (Linear)    (Quad)   (Total)
    r2        2.93243   0.00127  -0.00123   0.00476   0.00353   2.93596
    r3        3.34590   0.00034   0.00141  -0.00201  -0.00060   3.34529
    a3        1.92582   0.00020   0.00180  -0.00112   0.00068   1.92649
    r4        2.51827   0.00202   0.00300   0.00142   0.00442   2.52269
    a4        1.90685   0.00063   0.00155  -0.00103   0.00051   1.90736
    d4        4.17959   0.00004  -0.00065   0.00010  -0.00056   4.17903
    r5        2.51827   0.00202   0.00300   0.00142   0.00442   2.52269
    a5        1.90685   0.00063   0.00155  -0.00103   0.00051   1.90736
    d5        2.10360  -0.00004   0.00065  -0.00010   0.00056   2.10415
    r6        2.51825   0.00203   0.00301   0.00142   0.00443   2.52269
    a6        1.90685   0.00063   0.00151  -0.00099   0.00052   1.90736
    d6        1.03800   0.00004  -0.00069   0.00013  -0.00056   1.03744
    r7        2.51825   0.00203   0.00301   0.00142   0.00443   2.52269
    a7        1.90685   0.00063   0.00151  -0.00099   0.00052   1.90736
    d7        5.24518  -0.00004   0.00069  -0.00013   0.00056   5.24574
    r8        3.34595   0.00033   0.00137  -0.00202  -0.00065   3.34530
    a8        1.92581   0.00020   0.00176  -0.00108   0.00068   1.92649
    d8        3.14159  -0.00000  -0.00000   0.00000   0.00000   3.14159
         Item               Value     Threshold  Converged?
 Maximum Force            0.002026     0.000002     NO 
 RMS     Force            0.001052     0.000001     NO 
 Maximum Displacement     0.004431     0.000006     NO 
 RMS     Displacement     0.002296     0.000004     NO 
 Predicted change in Energy=-2.021670D-05
 GradGradGradGradGradGradGradGradGradGradGradGradGradGradGradGradGradGrad

 ---------------------------------------------------------------------------------------------------
                            Z-MATRIX (ANGSTROMS AND DEGREES)
   CD    Cent   Atom    N1       Length/X        N2       Alpha/Y        N3        Beta/Z          J
 ---------------------------------------------------------------------------------------------------
      1      1  C 
      2      2  C        1   1.553645(     1)
      3      3  Cl       1   1.770254(     2)      2  110.380(     8)
      4      4  F        1   1.334948(     3)      2  109.284(     9)      3  239.441(    14)      0
      5      5  F        1   1.334948(     4)      2  109.284(    10)      3  120.559(    15)      0
      6      6  F        2   1.334948(     5)      1  109.284(    11)      3   59.441(    16)      0
      7      7  F        2   1.334948(     6)      1  109.284(    12)      3  300.559(    17)      0
      8      8  Cl       2   1.770256(     7)      1  110.380(    13)      3  180.000(    18)      0
 ---------------------------------------------------------------------------------------------------
                         Z-Matrix orientation:                         
 ---------------------------------------------------------------------
 Center     Atomic      Atomic             Coordinates (Angstroms)
 Number     Number       Type             X           Y           Z
 ---------------------------------------------------------------------
      1          6           0        0.000000    0.000000    0.000000
      2          6           0        0.000000    0.000000    1.553645
      3         17           0        1.659443    0.000000   -0.616480
      4          9           0       -0.640643    1.085037   -0.440861
      5          9           0       -0.640643   -1.085037   -0.440861
      6          9           0        0.640640    1.085037    1.994509
      7          9           0        0.640640   -1.085037    1.994509
      8         17           0       -1.659445   -0.000000    2.170126
 ---------------------------------------------------------------------
                    Distance matrix (angstroms):
                    1          2          3          4          5
     1  C    0.000000
     2  C    1.553645   0.000000
     3  Cl   1.770254   2.731885   0.000000
     4  F    1.334948   2.359191   2.549224   0.000000
     5  F    1.334948   2.359191   2.549224   2.170074   0.000000
     6  F    2.359193   1.334948   3.005416   2.751856   3.504559
     7  F    2.359193   1.334948   3.005416   3.504559   2.751856
     8  Cl   2.731887   1.770256   4.333612   3.005414   3.005414
                    6          7          8
     6  F    0.000000
     7  F    2.170074   0.000000
     8  Cl   2.549223   2.549223   0.000000
 Stoichiometry    C2Cl2F4
 Framework group  CS[SG(C2Cl2),X(F4)]
 Deg. of freedom    11
 Full point group                 CS      NOp   2
 Largest Abelian subgroup         CS      NOp   2
 Largest concise Abelian subgroup CS      NOp   2
                         Standard orientation:                         
 ---------------------------------------------------------------------
 Center     Atomic      Atomic             Coordinates (Angstroms)
 Number     Number       Type             X           Y           Z
 ---------------------------------------------------------------------
      1          6           0        0.282378   -0.723683   -0.000000
      2          6           0       -0.282380    0.723680    0.000000
      3         17           0       -1.039452   -1.901207   -0.000000
      4          9           0        1.039452   -0.901508    1.085037
      5          9           0        1.039452   -0.901508   -1.085037
      6          9           0       -1.039452    0.901510    1.085037
      7          9           0       -1.039452    0.901510   -1.085037
      8         17           0        1.039452    1.901207    0.000000
 ---------------------------------------------------------------------
 Rotational constants (GHZ):           2.2112470           1.1562112           1.0383508
 Standard basis: CC-pVTZ (5D, 7F)
 There are   172 symmetry adapted cartesian basis functions of A'  symmetry.
 There are   116 symmetry adapted cartesian basis functions of A"  symmetry.
 There are   146 symmetry adapted basis functions of A'  symmetry.
 There are   102 symmetry adapted basis functions of A"  symmetry.
   248 basis functions,   500 primitive gaussians,   288 cartesian basis functions
    41 alpha electrons       41 beta electrons
       nuclear repulsion energy       612.0377209141 Hartrees.
 NAtoms=    8 NActive=    8 NUniq=    6 SFac= 1.78D+00 NAtFMM=   60 NAOKFM=F Big=F
 Integral buffers will be    131072 words long.
 Regular integral format.
 Two-electron integral symmetry is turned on.
 One-electron integrals computed using PRISM.
 NBasis=   248 RedAO= T EigKep=  1.09D-03  NBF=   146   102
 NBsUse=   248 1.00D-06 EigRej= -1.00D+00 NBFU=   146   102
 Initial guess from the checkpoint file:  "checkpoint.chk"
 B after Tr=     0.000000    0.000000    0.000000
         Rot=    0.909633    0.000000   -0.000000   -0.415412 Ang= -49.09 deg.
 Initial guess orbital symmetries:
       Occupied  (A') (A') (A") (A") (A') (A') (A') (A') (A') (A')
                 (A') (A') (A') (A') (A") (A") (A') (A') (A") (A")
                 (A') (A') (A') (A') (A') (A") (A") (A') (A') (A')
                 (A") (A") (A") (A') (A") (A') (A') (A') (A") (A")
                 (A')
       Virtual   (A') (A') (A") (A') (A') (A') (A") (A') (A') (A')
                 (A") (A') (A') (A") (A") (A') (A') (A") (A') (A')
                 (A') (A") (A") (A') (A') (A") (A") (A') (A') (A")
                 (A') (A') (A') (A') (A") (A") (A') (A') (A") (A")
                 (A') (A") (A') (A') (A') (A") (A") (A') (A') (A')
                 (A') (A") (A') (A') (A") (A") (A') (A") (A') (A')
                 (A') (A") (A") (A") (A') (A') (A") (A") (A') (A')
                 (A") (A") (A') (A') (A") (A') (A') (A") (A") (A')
                 (A") (A') (A") (A') (A') (A") (A") (A") (A') (A')
                 (A") (A') (A') (A") (A") (A') (A') (A') (A') (A")
                 (A') (A") (A') (A') (A') (A') (A") (A') (A') (A")
                 (A") (A') (A") (A') (A') (A") (A') (A') (A") (A')
                 (A') (A") (A') (A') (A") (A") (A") (A') (A') (A")
                 (A") (A') (A') (A') (A") (A') (A") (A') (A') (A')
                 (A") (A") (A') (A") (A") (A') (A') (A') (A') (A')
                 (A') (A") (A") (A") (A") (A') (A") (A') (A') (A")
                 (A") (A') (A") (A") (A") (A') (A') (A') (A') (A')
                 (A') (A') (A') (A") (A') (A") (A") (A') (A") (A")
                 (A") (A') (A") (A") (A") (A") (A') (A') (A') (A')
                 (A') (A") (A") (A') (A') (A") (A") (A') (A') (A")
                 (A") (A') (A') (A") (A') (A") (A')
 Requested convergence on RMS density matrix=1.00D-08 within 128 cycles.
 Requested convergence on MAX density matrix=1.00D-06.
 Requested convergence on             energy=1.00D-06.
 No special actions if energy rises.
 SCF Done:  E(RB2PLYP) =  -1395.12329727     A.U. after    7 cycles
            NFock=  7  Conv=0.92D-08     -V/T= 2.0024
 DoSCS=T DFT=T ScalE2(SS,OS)=  0.270000  0.270000
 ExpMin= 1.21D-01 ExpMax= 4.56D+05 ExpMxC= 1.44D+03 IAcc=3 IRadAn=         5 AccDes= 0.00D+00
 HarFok:  IExCor=  205 AccDes= 0.00D+00 IRadAn=         5 IDoV=-2 UseB2=F ITyADJ=14
 ICtDFT= 12500011 ScaDFX=  1.000000  1.000000  1.000000  1.000000
 Range of M.O.s used for correlation:    17   248
 NBasis=   248 NAE=    41 NBE=    41 NFC=    16 NFV=     0
 NROrb=    232 NOA=    25 NOB=    25 NVA=   207 NVB=   207
 DoSCS=T DFT=T ScalE2(SS,OS)=  0.270000  0.270000
 Disk-based method using ON**2 memory for 25 occupieds at a time.
 Permanent disk used for amplitudes=    89512389 words.
 Estimated scratch disk usage=   690507392 words.
 Actual    scratch disk usage=   667838080 words.
 GetIJB would need an additional    72850374 words of memory to use all   4 processors.
 JobTyp=1 Pass  1:  I=  17 to  41 NPSUse=  2 ParTrn=F ParDer=T DoDerP=T.
 Spin components of T(2) and E(2):
     alpha-alpha T2 =       0.8592915934D-01 E2=     -0.7326532513D-01
     alpha-beta  T2 =       0.4371569639D+00 E2=     -0.3987472018D+00
     beta-beta   T2 =       0.8592915934D-01 E2=     -0.7326532513D-01
 E2(B2PLYP) =    -0.5452778521D+00 E(B2PLYP) =    -0.13956685751180D+04
 G2DrvN: will do     9 centers at a time, making    1 passes.
 Calling FoFCou, ICntrl=  3107 FMM=F I1Cent=   0 AccDes= 0.00D+00.
 End of G2Drv F.D. properties file   721 does not exist.
 End of G2Drv F.D. properties file   722 does not exist.
 End of G2Drv F.D. properties file   788 does not exist.
          IDoAtm=11111111
          Differentiating once with respect to electric field.
                with respect to dipole field.
          Differentiating once with respect to nuclear coordinates.
 CalDSu exits because no D1Ps are significant.
          There are    27 degrees of freedom in the 1st order CPHF.  IDoFFX=6 NUNeed=    27.
     24 vectors produced by pass  0 Test12= 3.14D-14 3.70D-09 XBig12= 2.20D+01 1.85D+00.
 AX will form    24 AO Fock derivatives at one time.
     24 vectors produced by pass  1 Test12= 3.14D-14 3.70D-09 XBig12= 2.27D+00 3.29D-01.
     24 vectors produced by pass  2 Test12= 3.14D-14 3.70D-09 XBig12= 6.33D-02 5.25D-02.
     24 vectors produced by pass  3 Test12= 3.14D-14 3.70D-09 XBig12= 3.28D-03 1.19D-02.
     24 vectors produced by pass  4 Test12= 3.14D-14 3.70D-09 XBig12= 4.85D-05 1.24D-03.
     24 vectors produced by pass  5 Test12= 3.14D-14 3.70D-09 XBig12= 3.18D-07 1.19D-04.
     24 vectors produced by pass  6 Test12= 3.14D-14 3.70D-09 XBig12= 1.28D-09 5.04D-06.
     10 vectors produced by pass  7 Test12= 3.14D-14 3.70D-09 XBig12= 5.63D-12 3.89D-07.
      3 vectors produced by pass  8 Test12= 3.14D-14 3.70D-09 XBig12= 2.31D-14 2.60D-08.
 InvSVY:  IOpt=1 It=  1 EMax= 4.44D-15
 Solved reduced A of dimension   181 with    27 vectors.
 End of Minotr F.D. properties file   721 does not exist.
 End of Minotr F.D. properties file   722 does not exist.
 End of Minotr F.D. properties file   788 does not exist.
 MDV=   104857600.
 DoSCS=T DFT=T ScalE2(SS,OS)=  0.270000  0.270000
 Form MO integral derivatives with frozen-active canonical formalism.
 Discarding MO integrals.
 Reordered first order wavefunction length =    144058338
 In DefCFB: NBatch=  1 ICI= 41 ICA=207 LFMax= 26
            Large arrays: LIAPS=  2424701952 LIARS=   667281888 words.
 Semi-Direct transformation.
 ModeAB=           4 MOrb=            41 LenV=     103192428
 LASXX=    277759666 LTotXX=   277759666 LenRXX=   559081207
 LTotAB=   281321541 MaxLAS=   263696912 LenRXY=           0
 NonZer=   836840873 LenScr=  1260189696 LnRSAI=   263696912
 LnScr1=   397850112 LExtra=           0 Total=   2480817927
 MaxDsk=          -1 SrtSym=           T ITran=            4
 JobTyp=0 Pass  1:  I=   1 to  41.
 DoSCS=T DFT=T ScalE2(SS,OS)=  0.270000  0.270000
 Spin components of T(2) and E(2):
     alpha-alpha T2 =       0.8592915934D-01 E2=     -0.7326532513D-01
     alpha-beta  T2 =       0.4371569639D+00 E2=     -0.3987472018D+00
     beta-beta   T2 =       0.8592915934D-01 E2=     -0.7326532513D-01
 E2(B2PLYP) =    -0.5452778521D+00 E(B2PLYP) =    -0.13956685751180D+04
          IDoAtm=11111111
          Differentiating once with respect to electric field.
                with respect to dipole field.
          Differentiating once with respect to nuclear coordinates.
          There are     1 degrees of freedom in the 1st order CPHF.  IDoFFX=0 NUNeed=     1.
 LinEq1:  Iter=  0 NonCon=     1 RMS=1.45D-03 Max=3.73D-02 NDo=     1
 AX will form     1 AO Fock derivatives at one time.
 LinEq1:  Iter=  1 NonCon=     1 RMS=6.32D-04 Max=1.84D-02 NDo=     1
 LinEq1:  Iter=  2 NonCon=     1 RMS=1.98D-04 Max=6.15D-03 NDo=     1
 LinEq1:  Iter=  3 NonCon=     1 RMS=6.46D-05 Max=1.64D-03 NDo=     1
 LinEq1:  Iter=  4 NonCon=     1 RMS=1.26D-05 Max=2.93D-04 NDo=     1
 LinEq1:  Iter=  5 NonCon=     1 RMS=7.23D-06 Max=2.31D-04 NDo=     1
 LinEq1:  Iter=  6 NonCon=     1 RMS=1.56D-06 Max=3.42D-05 NDo=     1
 LinEq1:  Iter=  7 NonCon=     1 RMS=4.53D-07 Max=1.16D-05 NDo=     1
 LinEq1:  Iter=  8 NonCon=     1 RMS=9.69D-08 Max=3.40D-06 NDo=     1
 LinEq1:  Iter=  9 NonCon=     1 RMS=1.94D-08 Max=5.16D-07 NDo=     1
 LinEq1:  Iter= 10 NonCon=     1 RMS=2.74D-09 Max=8.29D-08 NDo=     1
 LinEq1:  Iter= 11 NonCon=     1 RMS=7.54D-10 Max=1.77D-08 NDo=     1
 LinEq1:  Iter= 12 NonCon=     1 RMS=2.12D-10 Max=7.62D-09 NDo=     1
 LinEq1:  Iter= 13 NonCon=     0 RMS=4.01D-11 Max=7.35D-10 NDo=     1
 Linear equations converged to 1.000D-10 1.000D-09 after    13 iterations.
 End of Minotr F.D. properties file   721 does not exist.
 End of Minotr F.D. properties file   722 does not exist.
 End of Minotr F.D. properties file   788 does not exist.
 Symmetrizing basis deriv contribution to polar:
 IMax=3 JMax=2 DiffMx= 0.00D+00
 G2DrvN: will do     9 centers at a time, making    1 passes.
 Calling FoFCou, ICntrl=  3107 FMM=F I1Cent=   0 AccDes= 0.00D+00.
 End of G2Drv F.D. properties file   721 does not exist.
 End of G2Drv F.D. properties file   722 does not exist.
 End of G2Drv F.D. properties file   788 does not exist.
 DoSCS=T DFT=T ScalE2(SS,OS)=  0.270000  0.270000
 Would need an additional  1639145114 words for in-memory AO integral storage.
 DD1Dir will call FoFJK  67 times, MxPair=        38
 NAB=   861 NAA=   820 NBB=     0 NumPrc=  4.
 FoFJK:  IHMeth= 1 ICntrl=     200 DoSepK=F KAlg= 0 I1Cent=           0 FoldK=F
 IRaf= 990000000 NMat=      38 IRICut=      47 DoRegI=T DoRafI=T ISym2E=-1 IDoP0=3 IntGTp=3.
 FoFCou: FMM=F IPFlag=           0 FMFlag=           0 FMFlg1=           0
         NFxFlg=           0 DoJE=F BraDBF=F KetDBF=F FulRan=T
         wScrn=  0.000000 ICntrl=       200 IOpCl=  0 I1Cent=           0 NGrid=           0
         NMat0=   38 NMatS0=      0 NMatT0=   19 NMatD0=   38 NMtDS0=    0 NMtDT0=    0
 Petite list used in FoFCou.
 Raff kept on since  48.04% of shell-pairs survive, threshold=   0.20 IRatSp=48.
 Discarding MO integrals.
 Calling FoFJK, ICntrl=  10100127 FMM=F ISym2X=1 I1Cent= 0 IOpClX= 0 NMat=1 NMatS=1 NMatT=0.
 ***** Axes restored to original set *****
 -------------------------------------------------------------------
 Center     Atomic                   Forces (Hartrees/Bohr)
 Number     Number              X              Y              Z
 -------------------------------------------------------------------
      1        6          -0.000008379   -0.000000000    0.000100647
      2        6           0.000007112   -0.000000000   -0.000099564
      3       17           0.000012145    0.000000000   -0.000009326
      4        9           0.000008780   -0.000021672    0.000001760
      5        9           0.000008780    0.000021672    0.000001760
      6        9          -0.000008359   -0.000021616   -0.000002085
      7        9          -0.000008359    0.000021616   -0.000002085
      8       17          -0.000011720   -0.000000000    0.000008893
 -------------------------------------------------------------------
 Cartesian Forces:  Max     0.000100647 RMS     0.000030820
 -----------------------------------------------------------------------------------------------
                       Internal Coordinate Forces (Hartree/Bohr or radian)
  Cent   Atom   N1       Length/X         N2         Alpha/Y        N3         Beta/Z          J
 -----------------------------------------------------------------------------------------------
      1  C 
      2  C        1  -0.000095(     1)
      3  Cl       1   0.000015(     2)      2   0.000015(     8)
      4  F        1  -0.000022(     3)      2   0.000015(     9)      3  -0.000008(    14)     0
      5  F        1  -0.000022(     4)      2   0.000015(    10)      3   0.000008(    15)     0
      6  F        2  -0.000022(     5)      1   0.000014(    11)      3  -0.000009(    16)     0
      7  F        2  -0.000022(     6)      1   0.000014(    12)      3   0.000009(    17)     0
[...]
 Symmetrizing basis deriv contribution to polar:
 IMax=3 JMax=2 DiffMx= 0.00D+00
 G2DrvN: will do     9 centers at a time, making    1 passes.
 Calling FoFCou, ICntrl=  3107 FMM=F I1Cent=   0 AccDes= 0.00D+00.
 End of G2Drv F.D. properties file   721 does not exist.
 End of G2Drv F.D. properties file   722 does not exist.
 End of G2Drv F.D. properties file   788 does not exist.
 DoSCS=T DFT=T ScalE2(SS,OS)=  0.270000  0.270000
 Would need an additional  1639145114 words for in-memory AO integral storage.
 DD1Dir will call FoFJK  67 times, MxPair=        38
 NAB=   861 NAA=   820 NBB=     0 NumPrc=  4.
 FoFJK:  IHMeth= 1 ICntrl=     200 DoSepK=F KAlg= 0 I1Cent=           0 FoldK=F
 IRaf= 990000000 NMat=      38 IRICut=      47 DoRegI=T DoRafI=T ISym2E= 2 IDoP0=3 IntGTp=3.
 FoFCou: FMM=F IPFlag=           0 FMFlag=           0 FMFlg1=           0
         NFxFlg=           0 DoJE=F BraDBF=F KetDBF=F FulRan=T
         wScrn=  0.000000 ICntrl=       200 IOpCl=  0 I1Cent=           0 NGrid=           0
         NMat0=   38 NMatS0=      0 NMatT0=   19 NMatD0=   38 NMtDS0=    0 NMtDT0=    0
 Integrals replicated using symmetry in FoFCou.
 Raff kept on since  48.04% of shell-pairs survive, threshold=   0.20 IRatSp=48.
 Discarding MO integrals.
 Calling FoFJK, ICntrl=  10100127 FMM=F ISym2X=1 I1Cent= 0 IOpClX= 0 NMat=1 NMatS=1 NMatT=0.
 ***** Axes restored to original set *****
 -------------------------------------------------------------------
 Center     Atomic                   Forces (Hartrees/Bohr)
 Number     Number              X              Y              Z
 -------------------------------------------------------------------
      1        6           0.000001697   -0.000000000    0.000002252
      2        6          -0.000001645   -0.000000000   -0.000002267
      3       17           0.000000223   -0.000000000   -0.000000777
      4        9          -0.000000649   -0.000000615   -0.000000523
      5        9          -0.000000649    0.000000615   -0.000000523
      6        9           0.000000641   -0.000000620    0.000000525
      7        9           0.000000641    0.000000620    0.000000525
      8       17          -0.000000259   -0.000000000    0.000000788
 -------------------------------------------------------------------
 Cartesian Forces:  Max     0.000002267 RMS     0.000000945
 -----------------------------------------------------------------------------------------------
                       Internal Coordinate Forces (Hartree/Bohr or radian)
  Cent   Atom   N1       Length/X         N2         Alpha/Y        N3         Beta/Z          J
 -----------------------------------------------------------------------------------------------
      1  C 
      2  C        1  -0.000000(     1)
      3  Cl       1   0.000000(     2)      2   0.000002(     8)
      4  F        1  -0.000000(     3)      2   0.000001(     9)      3  -0.000002(    14)     0
      5  F        1  -0.000000(     4)      2   0.000001(    10)      3   0.000002(    15)     0
      6  F        2  -0.000000(     5)      1   0.000001(    11)      3  -0.000002(    16)     0
      7  F        2  -0.000000(     6)      1   0.000001(    12)      3   0.000002(    17)     0
      8  Cl       2   0.000001(     7)      1   0.000002(    13)      3   0.000000(    18)     0
 -----------------------------------------------------------------------------------------------
 Internal  Forces:  Max     0.000002178 RMS     0.000001400

 GradGradGradGradGradGradGradGradGradGradGradGradGradGradGradGradGradGrad
 Berny optimization.
 Search for a local minimum.
 Step number  24 out of a maximum of   28
 All quantities printed in internal units (Hartrees-Bohrs-Radians)
 Second derivative matrix not updated -- analytic derivatives used.
 The second derivative matrix:
                          r2        r3        a3        r4        a4
           r2           0.26139
           r3           0.01259   0.21655
           a3           0.03924  -0.00113   0.41880
           r4           0.01899   0.03980  -0.03461   0.40585
           a4           0.03943  -0.03658   0.13052   0.00786   0.44551
           d4           0.00828  -0.04989   0.08711   0.01001  -0.00441
           r5           0.01899   0.03980  -0.03461   0.05208  -0.03458
           a5           0.03943  -0.03658   0.13052  -0.03458   0.14791
           d5          -0.00828   0.04989  -0.08711  -0.06212   0.10507
           r6           0.01899   0.00323  -0.00002   0.00443  -0.00089
           a6           0.03943   0.00235   0.01801  -0.00089   0.00124
           d6           0.00828  -0.00326   0.01395   0.00738  -0.00020
           r7           0.01899   0.00323  -0.00002   0.00406   0.02028
           a7           0.03943   0.00235   0.01801   0.02028   0.04417
           d7          -0.00828   0.00326  -0.01395  -0.00068   0.00166
           r8           0.01259   0.00223   0.01038   0.00323   0.00235
           a8           0.03924   0.01038   0.02253  -0.00002   0.01801
           d8          -0.00000   0.00000  -0.00000  -0.00586   0.01209
                          d4        r5        a5        d5        r6
           d4           0.43272
           r5           0.06212   0.40585
           a5          -0.10507   0.00786   0.44551
           d5          -0.23678  -0.01001   0.00441   0.43272
           r6           0.00738   0.00406   0.02028  -0.00068   0.40585
           a6          -0.00020   0.02028   0.04417   0.00166   0.00786
           d6           0.00003   0.00068  -0.00166   0.00692   0.01001
           r7           0.00068   0.00443  -0.00089  -0.00738   0.05208
           a7          -0.00166  -0.00089   0.00124   0.00020  -0.03458
           d7           0.00692  -0.00738   0.00020   0.00003  -0.06212
           r8          -0.00326   0.00323   0.00235   0.00326   0.03980
           a8           0.01395  -0.00002   0.01801  -0.01395  -0.03461
           d8           0.00875   0.00586  -0.01209   0.00875   0.05294
                          a6        d6        r7        a7        d7
           a6           0.44551
           d6          -0.00441   0.43272
           r7          -0.03458   0.06212   0.40585
           a7           0.14791  -0.10507   0.00786   0.44551
           d7           0.10507  -0.23678  -0.01001   0.00441   0.43272
           r8          -0.03658  -0.04989   0.03980  -0.03658   0.04989
           a8           0.13052   0.08711  -0.03461   0.13052  -0.08711
           d8          -0.08713  -0.18025  -0.05294   0.08713  -0.18025
                          r8        a8        d8
           r8           0.21655
           a8          -0.00113   0.41880
           d8           0.00000  -0.00000   0.37802
 ITU=  0  0 -1 -1  0  0 -1 -1  0  0 -1 -1  0 -1  0 -1 -1 -1 -1
     Eigenvalues ---    0.01464   0.11301   0.13380   0.16410   0.18178
     Eigenvalues ---    0.23118   0.27038   0.28715   0.33827   0.36474
     Eigenvalues ---    0.41060   0.43453   0.48735   0.64957   0.65740
     Eigenvalues ---    0.75086   0.75801   0.79903
 RFO step:  Lambda= 0.00000000D+00 EMin= 1.46395278D-02
 Skip linear search -- no minimum in search direction.
 Variable       Old X    -DE/DX   Delta X   Delta X   Delta X     New X
                                 (Linear)    (Quad)   (Total)
    r2        2.93556  -0.00000   0.00000  -0.00000  -0.00000   2.93556
    r3        3.34540   0.00000   0.00000  -0.00000  -0.00000   3.34540
    a3        1.92657   0.00000   0.00000   0.00001   0.00001   1.92658
    r4        2.52266  -0.00000   0.00000   0.00000   0.00000   2.52266
    a4        1.90738   0.00000   0.00000  -0.00000  -0.00000   1.90738
    d4        4.17902  -0.00000   0.00000  -0.00000  -0.00000   4.17901
    r5        2.52266  -0.00000   0.00000   0.00000   0.00000   2.52266
    a5        1.90738   0.00000   0.00000  -0.00000  -0.00000   1.90738
    d5        2.10417   0.00000   0.00000   0.00000   0.00000   2.10417
    r6        2.52266  -0.00000   0.00000   0.00000   0.00000   2.52266
    a6        1.90738   0.00000   0.00000  -0.00000  -0.00000   1.90738
    d6        1.03742  -0.00000   0.00000  -0.00000  -0.00000   1.03742
    r7        2.52266  -0.00000   0.00000   0.00000   0.00000   2.52266
    a7        1.90738   0.00000   0.00000  -0.00000  -0.00000   1.90738
    d7        5.24576   0.00000   0.00000   0.00000   0.00000   5.24577
    r8        3.34540   0.00000   0.00000  -0.00000  -0.00000   3.34540
    a8        1.92657   0.00000   0.00000   0.00001   0.00001   1.92658
    d8        3.14159   0.00000   0.00000   0.00000   0.00000   3.14159
         Item               Value     Threshold  Converged?
 Maximum Force            0.000002     0.000002     NO 
 RMS     Force            0.000001     0.000001     NO 
 Maximum Displacement     0.000008     0.000006     NO 
 RMS     Displacement     0.000004     0.000004     YES
 Predicted change in Energy=-3.527744D-11
 GradGradGradGradGradGradGradGradGradGradGradGradGradGradGradGradGradGrad

 ---------------------------------------------------------------------------------------------------
                            Z-MATRIX (ANGSTROMS AND DEGREES)
   CD    Cent   Atom    N1       Length/X        N2       Alpha/Y        N3        Beta/Z          J
 ---------------------------------------------------------------------------------------------------
      1      1  C 
      2      2  C        1   1.553431(     1)
      3      3  Cl       1   1.770308(     2)      2  110.385(     8)
      4      4  F        1   1.334933(     3)      2  109.285(     9)      3  239.440(    14)      0
      5      5  F        1   1.334933(     4)      2  109.285(    10)      3  120.560(    15)      0
      6      6  F        2   1.334933(     5)      1  109.285(    11)      3   59.440(    16)      0
      7      7  F        2   1.334933(     6)      1  109.285(    12)      3  300.560(    17)      0
      8      8  Cl       2   1.770308(     7)      1  110.385(    13)      3  180.000(    18)      0
 ---------------------------------------------------------------------------------------------------
                         Z-Matrix orientation:                         
 ---------------------------------------------------------------------
 Center     Atomic      Atomic             Coordinates (Angstroms)
 Number     Number       Type             X           Y           Z
 ---------------------------------------------------------------------
      1          6           0        0.000000    0.000000    0.000000
      2          6           0        0.000000    0.000000    1.553431
      3         17           0        1.659439    0.000000   -0.616646
      4          9           0       -0.640653    1.085002   -0.440886
      5          9           0       -0.640653   -1.085002   -0.440886
      6          9           0        0.640653    1.085002    1.994317
      7          9           0        0.640653   -1.085002    1.994317
      8         17           0       -1.659439    0.000000    2.170077
 ---------------------------------------------------------------------
                    Distance matrix (angstroms):
                    1          2          3          4          5
     1  C    0.000000
     2  C    1.553431   0.000000
     3  Cl   1.770308   2.731844   0.000000
     4  F    1.334933   2.359018   2.549224   0.000000
     5  F    1.334933   2.359018   2.549224   2.170004   0.000000
     6  F    2.359018   1.334933   3.005376   2.751719   3.504408
     7  F    2.359018   1.334933   3.005376   3.504408   2.751719
     8  Cl   2.731844   1.770308   4.333680   3.005376   3.005376
                    6          7          8
     6  F    0.000000
     7  F    2.170004   0.000000
     8  Cl   2.549224   2.549224   0.000000
 Stoichiometry    C2Cl2F4
 Framework group  C2H[SGH(C2Cl2),X(F4)]
 Deg. of freedom     6
 Full point group                 C2H     NOp   4
 Omega: Change in point group or standard orientation.

 Old FWG=CS   [SG(C2Cl2),X(F4)]
 New FWG=C02H [SGH(C2Cl2),X(F4)]
 Largest Abelian subgroup         C2H     NOp   4
 Largest concise Abelian subgroup C2H     NOp   4
                         Standard orientation:                         
 ---------------------------------------------------------------------
 Center     Atomic      Atomic             Coordinates (Angstroms)
 Number     Number       Type             X           Y           Z
 ---------------------------------------------------------------------
      1          6           0        0.774458   -0.059180   -0.000000
      2          6           0       -0.774458    0.059180   -0.000000
      3         17           0        1.262875   -1.760779   -0.000000
      4          9           0        1.262875    0.546019    1.085002
      5          9           0        1.262875    0.546019   -1.085002
      6          9           0       -1.262875   -0.546019    1.085002
      7          9           0       -1.262875   -0.546019   -1.085002
      8         17           0       -1.262875    1.760779   -0.000000
 ---------------------------------------------------------------------
 Rotational constants (GHZ):           2.2114232           1.1562147           1.0383679
 Standard basis: CC-pVTZ (5D, 7F)
 There are    86 symmetry adapted cartesian basis functions of AG  symmetry.
 There are    58 symmetry adapted cartesian basis functions of BG  symmetry.
 There are    58 symmetry adapted cartesian basis functions of AU  symmetry.
 There are    86 symmetry adapted cartesian basis functions of BU  symmetry.
 There are    73 symmetry adapted basis functions of AG  symmetry.
 There are    51 symmetry adapted basis functions of BG  symmetry.
 There are    51 symmetry adapted basis functions of AU  symmetry.
 There are    73 symmetry adapted basis functions of BU  symmetry.
   248 basis functions,   500 primitive gaussians,   288 cartesian basis functions
    41 alpha electrons       41 beta electrons
       nuclear repulsion energy       612.0474349757 Hartrees.
 NAtoms=    8 NActive=    8 NUniq=    3 SFac= 4.00D+00 NAtFMM=   60 NAOKFM=F Big=F
 Integral buffers will be    131072 words long.
 Regular integral format.
 Two-electron integral symmetry is turned on.
 One-electron integrals computed using PRISM.
 NBasis=   248 RedAO= T EigKep=  1.09D-03  NBF=    73    51    51    73
 NBsUse=   248 1.00D-06 EigRej= -1.00D+00 NBFU=    73    51    51    73
 Initial guess from the checkpoint file:  "checkpoint.chk"
 B after Tr=    -0.000000   -0.000000   -0.000000
         Rot=    0.784990    0.000000   -0.000000    0.619509 Ang=  76.56 deg.
 Initial guess orbital symmetries:
       Occupied  (?A) (?A) (BG) (AU) (?A) (?A) (AG) (BU) (?A) (?A)
                 (?A) (?A) (?A) (?A) (?B) (?B) (AG) (BU) (AU) (BG)
                 (AG) (BU) (AG) (BU) (AG) (AU) (BG) (BU) (AG) (BU)
                 (AU) (BG) (AU) (AG) (BG) (BU) (AG) (BU) (AU) (BG)
                 (AG)
       Virtual   (BU) (AG) (AU) (BU) (AG) (BU) (BG) (BU) (BU) (AG)
                 (AU) (AG) (AG) (BG) (BG) (BU) (AG) (AU) (BU) (AG)
                 (BU) (AU) (BG) (AG) (BU) (BG) (AU) (AG) (BU) (AU)
                 (AG) (BU) (AG) (BU) (AU) (BG) (AG) (BU) (AU) (BG)
                 (AG) (BG) (BU) (AG) (BU) (AU) (BG) (BU) (AG) (AG)
                 (BU) (BG) (AG) (BU) (AU) (BG) (AG) (AU) (BU) (AG)
                 (BU) (BG) (AU) (AU) (BU) (AG) (BG) (AU) (BU) (AG)
                 (AU) (BG) (BU) (AG) (BG) (BU) (AG) (BG) (AU) (BU)
                 (AU) (AG) (BG) (BU) (AU) (AG) (AU) (BG) (BU) (AG)
                 (BG) (AG) (BU) (BG) (AU) (AG) (BU) (AG) (BU) (AU)
                 (AG) (BG) (BU) (AG) (BU) (AU) (AG) (BU) (BU) (BG)
                 (AU) (AG) (BG) (AG) (BU) (BG) (BU) (AG) (AU) (AG)
                 (BU) (AU) (AG) (BU) (BG) (AU) (BG) (AG) (BU) (BG)
                 (AU) (BU) (AG) (BU) (AU) (AG) (BG) (AG) (BU) (AG)
                 (AU) (BG) (AG) (BG) (AU) (BU) (BU) (AG) (BU) (AG)
                 (BU) (AU) (BG) (AU) (BG) (BU) (BG) (AG) (AG) (AU)
                 (AU) (BU) (BG) (BG) (AU) (BU) (AG) (AG) (BU) (AG)
                 (BU) (AG) (AG) (AU) (BU) (BG) (AU) (BU) (BG) (BG)
                 (AU) (AG) (AU) (BG) (AU) (BG) (BU) (AG) (BU) (AG)
                 (BU) (BG) (AU) (AG) (BU) (BG) (AU) (BU) (AG) (AU)
                 (BG) (AG) (BU) (BG) (BU) (AU) (AG)
 Requested convergence on RMS density matrix=1.00D-08 within 128 cycles.
 Requested convergence on MAX density matrix=1.00D-06.
 Requested convergence on             energy=1.00D-06.
 No special actions if energy rises.
 An orbital has undefined symmetry, so N**3 symmetry is turned off.
 SCF Done:  E(RB2PLYP) =  -1395.12330033     A.U. after    3 cycles
            NFock=  3  Conv=0.45D-08     -V/T= 2.0024
 DoSCS=T DFT=T ScalE2(SS,OS)=  0.270000  0.270000
 ExpMin= 1.21D-01 ExpMax= 4.56D+05 ExpMxC= 1.44D+03 IAcc=3 IRadAn=         5 AccDes= 0.00D+00
 HarFok:  IExCor=  205 AccDes= 0.00D+00 IRadAn=         5 IDoV=-2 UseB2=F ITyADJ=14
 ICtDFT= 12500011 ScaDFX=  1.000000  1.000000  1.000000  1.000000
 Range of M.O.s used for correlation:    17   248
 NBasis=   248 NAE=    41 NBE=    41 NFC=    16 NFV=     0
 NROrb=    232 NOA=    25 NOB=    25 NVA=   207 NVB=   207
 DoSCS=T DFT=T ScalE2(SS,OS)=  0.270000  0.270000
 Disk-based method using ON**2 memory for 25 occupieds at a time.
 Permanent disk used for amplitudes=    89512389 words.
 Estimated scratch disk usage=  1079440536 words.
 Actual    scratch disk usage=  1044185752 words.
 GetIJB would need an additional    72850373 words of memory to use all   4 processors.
 JobTyp=1 Pass  1:  I=  17 to  41 NPSUse=  2 ParTrn=F ParDer=T DoDerP=T.
 Spin components of T(2) and E(2):
     alpha-alpha T2 =       0.8592762816D-01 E2=     -0.7326499561D-01
     alpha-beta  T2 =       0.4371487022D+00 E2=     -0.3987449441D+00
     beta-beta   T2 =       0.8592762816D-01 E2=     -0.7326499561D-01
 E2(B2PLYP) =    -0.5452749353D+00 E(B2PLYP) =    -0.13956685752606D+04
 G2DrvN: will do     9 centers at a time, making    1 passes.
 Calling FoFCou, ICntrl=  3107 FMM=F I1Cent=   0 AccDes= 0.00D+00.
 End of G2Drv F.D. properties file   721 does not exist.
 End of G2Drv F.D. properties file   722 does not exist.
 End of G2Drv F.D. properties file   788 does not exist.
          IDoAtm=11111111
          Differentiating once with respect to electric field.
                with respect to dipole field.
          Differentiating once with respect to nuclear coordinates.
 CalDSu exits because no D1Ps are significant.
          There are    27 degrees of freedom in the 1st order CPHF.  IDoFFX=6 NUNeed=    27.
     24 vectors produced by pass  0 Test12= 3.14D-14 3.70D-09 XBig12= 2.65D+01 2.26D+00.
 AX will form    24 AO Fock derivatives at one time.
     24 vectors produced by pass  1 Test12= 3.14D-14 3.70D-09 XBig12= 2.68D+00 4.15D-01.
     24 vectors produced by pass  2 Test12= 3.14D-14 3.70D-09 XBig12= 6.60D-02 5.35D-02.
     24 vectors produced by pass  3 Test12= 3.14D-14 3.70D-09 XBig12= 2.06D-03 9.88D-03.
     24 vectors produced by pass  4 Test12= 3.14D-14 3.70D-09 XBig12= 3.42D-05 9.14D-04.
     24 vectors produced by pass  5 Test12= 3.14D-14 3.70D-09 XBig12= 2.63D-07 9.61D-05.
     24 vectors produced by pass  6 Test12= 3.14D-14 3.70D-09 XBig12= 9.03D-10 5.09D-06.
     10 vectors produced by pass  7 Test12= 3.14D-14 3.70D-09 XBig12= 3.36D-12 2.98D-07.
      3 vectors produced by pass  8 Test12= 3.14D-14 3.70D-09 XBig12= 1.48D-14 2.78D-08.
 InvSVY:  IOpt=1 It=  1 EMax= 3.55D-15
 Solved reduced A of dimension   181 with    27 vectors.
 End of Minotr F.D. properties file   721 does not exist.
 End of Minotr F.D. properties file   722 does not exist.
 End of Minotr F.D. properties file   788 does not exist.
 MDV=   104857600.
 DoSCS=T DFT=T ScalE2(SS,OS)=  0.270000  0.270000
 Form MO integral derivatives with frozen-active canonical formalism.
 Discarding MO integrals.
 Reordered first order wavefunction length =    144058338
 In DefCFB: NBatch=  1 ICI= 41 ICA=207 LFMax= 26
            Large arrays: LIAPS=  2424701952 LIARS=   667281888 words.
