 Entering Gaussian System, Link 0=g16
 Input=CFC-113.gjf
 Output=CFC-113.log
 Initial command:
 /apps/gaussian/g16c01/g16/l1.exe "/jobfs/11622737.gadi-pbs/Gau-2194386.inp" -scrdir="/jobfs/11622737.gadi-pbs/"
 Entering Link 1 = /apps/gaussian/g16c01/g16/l1.exe PID=   2194391.
  
 Copyright (c) 1988-2019, Gaussian, Inc.  All Rights Reserved.
  
 This is part of the Gaussian(R) 16 program.  It is based on
 the Gaussian(R) 09 system (copyright 2009, Gaussian, Inc.),
 the Gaussian(R) 03 system (copyright 2003, Gaussian, Inc.),
 the Gaussian(R) 98 system (copyright 1998, Gaussian, Inc.),
 the Gaussian(R) 94 system (copyright 1995, Gaussian, Inc.),
 the Gaussian 92(TM) system (copyright 1992, Gaussian, Inc.),
 the Gaussian 90(TM) system (copyright 1990, Gaussian, Inc.),
 the Gaussian 88(TM) system (copyright 1988, Gaussian, Inc.),
 the Gaussian 86(TM) system (copyright 1986, Carnegie Mellon
 University), and the Gaussian 82(TM) system (copyright 1983,
 Carnegie Mellon University). Gaussian is a federally registered
 trademark of Gaussian, Inc.
  
 This software contains proprietary and confidential information,
 including trade secrets, belonging to Gaussian, Inc.
  
 This software is provided under written license and may be
 used, copied, transmitted, or stored only in accord with that
 written license.
  
 The following legend is applicable only to US Government
 contracts under FAR:
  
                    RESTRICTED RIGHTS LEGEND
  
 Use, reproduction and disclosure by the US Government is
 subject to restrictions as set forth in subparagraphs (a)
 and (c) of the Commercial Computer Software - Restricted
 Rights clause in FAR 52.227-19.
  
 Gaussian, Inc.
 340 Quinnipiac St., Bldg. 40, Wallingford CT 06492
  
  
 ---------------------------------------------------------------
 Warning -- This program may not be used in any manner that
 competes with the business of Gaussian, Inc. or will provide
 assistance to any competitor of Gaussian, Inc.  The licensee
 of this program is prohibited from giving any competitor of
 Gaussian, Inc. access to this program.  By using this program,
 the user acknowledges that Gaussian, Inc. is engaged in the
 business of creating and licensing software in the field of
 computational chemistry and represents and warrants to the
 licensee that it is not a competitor of Gaussian, Inc. and that
 it will not use this program in any manner prohibited above.
 ---------------------------------------------------------------
  

 Cite this work as:
 Gaussian 16, Revision C.01,
 M. J. Frisch, G. W. Trucks, H. B. Schlegel, G. E. Scuseria, 
 M. A. Robb, J. R. Cheeseman, G. Scalmani, V. Barone, 
 G. A. Petersson, H. Nakatsuji, X. Li, M. Caricato, A. V. Marenich, 
 J. Bloino, B. G. Janesko, R. Gomperts, B. Mennucci, H. P. Hratchian, 
 J. V. Ortiz, A. F. Izmaylov, J. L. Sonnenberg, D. Williams-Young, 
 F. Ding, F. Lipparini, F. Egidi, J. Goings, B. Peng, A. Petrone, 
 T. Henderson, D. Ranasinghe, V. G. Zakrzewski, J. Gao, N. Rega, 
 G. Zheng, W. Liang, M. Hada, M. Ehara, K. Toyota, R. Fukuda, 
 J. Hasegawa, M. Ishida, T. Nakajima, Y. Honda, O. Kitao, H. Nakai, 
 T. Vreven, K. Throssell, J. A. Montgomery, Jr., J. E. Peralta, 
 F. Ogliaro, M. J. Bearpark, J. J. Heyd, E. N. Brothers, K. N. Kudin, 
 V. N. Staroverov, T. A. Keith, R. Kobayashi, J. Normand, 
 K. Raghavachari, A. P. Rendell, J. C. Burant, S. S. Iyengar, 
 J. Tomasi, M. Cossi, J. M. Millam, M. Klene, C. Adamo, R. Cammi, 
 J. W. Ochterski, R. L. Martin, K. Morokuma, O. Farkas, 
 J. B. Foresman, and D. J. Fox, Gaussian, Inc., Wallingford CT, 2019.
 
 ******************************************
 Gaussian 16:  ES64L-G16RevC.01  3-Jul-2019
                23-Sep-2020 
 ******************************************
 %NprocShared=4
 Will use up to    4 processors via shared memory.
 %chk=checkpoint.chk
 -------------------------------------------------------------------
 # B2PLYP/cc-pVTZ Freq Opt=(VeryTight,ZMatrix,CalcAll) Int=UltraFine
 -------------------------------------------------------------------
 1/7=1,10=4,18=40,38=1/1,3;
 2/12=2,17=6,18=5,29=3,40=1/2;
 3/5=16,6=1,11=9,25=1,30=1,71=2,74=-47,75=-5,140=1/1,2,3;
 4//1;
 5/5=2,38=5/2;
 8/6=3,8=1,10=1,19=11,30=-1/1;
 9/15=3,16=-3/6;
 11/6=1,8=1,15=11,17=12,24=-1,27=1,28=-2,29=300,32=6,42=3/1,2,10;
 10/6=2,21=1/2;
 8/6=4,8=1,10=1,19=11,30=-1/11,4;
 10/5=1,20=4/2;
 11/12=2,14=11,16=1,17=2,28=-2,42=3,76=2/2,10,12;
 6/7=2,8=2,9=2,10=2,18=1/1;
 7/10=1,12=2,25=1,44=2/1,2,3,16;
 1/7=1,10=4,18=40/3(3);
 2/29=3/2;
 7/8=1,9=1,25=1,44=-1/16;
 99//99;
 2/29=3/2;
 3/5=16,6=1,11=9,25=1,30=1,71=2,74=-47,75=-5,140=1/1,2,3;
 4/5=5,16=3,69=1/1;
 5/5=2,38=5/2;
 8/6=3,8=1,10=1,19=11,30=-1/1;
 9/15=3,16=-3/6;
 11/6=1,8=1,15=11,17=12,24=-1,27=1,28=-2,29=300,32=6,42=3/1,2,10;
 10/6=2,21=1/2;
 8/6=4,8=1,10=1,19=11,30=-1/11,4;
 10/5=1,20=4/2;
 11/12=2,14=11,16=1,17=2,28=-2,42=3,76=2/2,10,12;
 7/10=1,12=2,25=1,44=2/1,2,3,16;
 1/7=1,10=4,18=40/3(-12);
 2/29=3/2;
 6/7=2,8=2,9=2,10=2,18=1/1;
 7/8=1,9=1,25=1,44=-1/16;
 99//99;
 ------------------------------------------
 CFC-113 - Cl2FC-CClF2 HARMONIC FREQUENCIES
 ------------------------------------------
 Symbolic Z-matrix:
 Charge =  0 Multiplicity = 1
 C
 C                    1    r2
 Cl                   1    r3       2    a3
 F                    1    r4       2    a4       3    d4       0
 F                    1    r5       2    a5       3    d5       0
 Cl                   2    r6       1    a6       3    d6       0
 Cl                   2    r7       1    a7       3    d7       0
 F                    2    r8       1    a8       3    d8       0
       Variables:
  r2                    1.5462                   
  r3                    1.7881                   
  a3                  114.25                     
  r4                    1.3641                   
  a4                  110.37                     
  d4                  238.15                     
  r5                    1.3641                   
  a5                  110.37                     
  d5                  121.85                     
  r6                    1.796                    
  a6                  112.41                     
  d6                   61.45                     
  r7                    1.796                    
  a7                  112.41                     
  d7                  298.55                     
  r8                    1.3679                   
  a8                  109.28                     
  d8                  180.                       
 

 GradGradGradGradGradGradGradGradGradGradGradGradGradGradGradGradGradGrad
 Berny optimization.
 Initialization pass.
                       ----------------------------
                       !    Initial Parameters    !
                       ! (Angstroms and Degrees)  !
 ----------------------                            ----------------------
 !      Name          Value   Derivative information (Atomic Units)     !
 ------------------------------------------------------------------------
 !       r2          1.5462   calculate D2E/DX2 analytically            !
 !       r3          1.7881   calculate D2E/DX2 analytically            !
 !       a3        114.25     calculate D2E/DX2 analytically            !
 !       r4          1.3641   calculate D2E/DX2 analytically            !
 !       a4        110.37     calculate D2E/DX2 analytically            !
 !       d4        238.15     calculate D2E/DX2 analytically            !
 !       r5          1.3641   calculate D2E/DX2 analytically            !
 !       a5        110.37     calculate D2E/DX2 analytically            !
 !       d5        121.85     calculate D2E/DX2 analytically            !
 !       r6          1.796    calculate D2E/DX2 analytically            !
 !       a6        112.41     calculate D2E/DX2 analytically            !
 !       d6         61.45     calculate D2E/DX2 analytically            !
 !       r7          1.796    calculate D2E/DX2 analytically            !
 !       a7        112.41     calculate D2E/DX2 analytically            !
 !       d7        298.55     calculate D2E/DX2 analytically            !
 !       r8          1.3679   calculate D2E/DX2 analytically            !
 !       a8        109.28     calculate D2E/DX2 analytically            !
 !       d8        180.0      calculate D2E/DX2 analytically            !
 ------------------------------------------------------------------------
 Trust Radius=3.00D-01 FncErr=1.00D-07 GrdErr=1.00D-07 EigMax=2.50D+02 EigMin=1.00D-04
 Number of steps in this run=     28 maximum allowed number of steps=    100.
 GradGradGradGradGradGradGradGradGradGradGradGradGradGradGradGradGradGrad

 ---------------------------------------------------------------------------------------------------
                            Z-MATRIX (ANGSTROMS AND DEGREES)
   CD    Cent   Atom    N1       Length/X        N2       Alpha/Y        N3        Beta/Z          J
 ---------------------------------------------------------------------------------------------------
      1      1  C 
      2      2  C        1   1.546200(     1)
      3      3  Cl       1   1.788100(     2)      2  114.250(     8)
      4      4  F        1   1.364100(     3)      2  110.370(     9)      3  238.150(    14)      0
      5      5  F        1   1.364100(     4)      2  110.370(    10)      3  121.850(    15)      0
      6      6  Cl       2   1.796000(     5)      1  112.410(    11)      3   61.450(    16)      0
      7      7  Cl       2   1.796000(     6)      1  112.410(    12)      3  298.550(    17)      0
      8      8  F        2   1.367900(     7)      1  109.280(    13)      3  180.000(    18)      0
 ---------------------------------------------------------------------------------------------------
                         Z-Matrix orientation:                         
 ---------------------------------------------------------------------
 Center     Atomic      Atomic             Coordinates (Angstroms)
 Number     Number       Type             X           Y           Z
 ---------------------------------------------------------------------
      1          6           0        0.000000    0.000000    0.000000
      2          6           0        0.000000    0.000000    1.546200
      3         17           0        1.630322    0.000000   -0.734406
      4          9           0       -0.674817    1.086250   -0.474818
      5          9           0       -0.674817   -1.086250   -0.474818
      6         17           0        0.793531    1.458465    2.230892
      7         17           0        0.793531   -1.458465    2.230892
      8          9           0       -1.291183    0.000000    1.997860
 ---------------------------------------------------------------------
                    Distance matrix (angstroms):
                    1          2          3          4          5
     1  C    0.000000
     2  C    1.546200   0.000000
     3  Cl   1.788100   2.803411   0.000000
     4  F    1.364100   2.391616   2.561443   0.000000
     5  F    1.364100   2.391616   2.561443   2.172500   0.000000
     6  Cl   2.780952   1.796000   3.408861   3.100880   3.994057
     7  Cl   2.780952   1.796000   3.408861   3.994057   3.100880
     8  F    2.378781   1.367900   4.000059   2.770195   2.770195
                    6          7          8
     6  Cl   0.000000
     7  Cl   2.916931   0.000000
     8  F    2.554889   2.554889   0.000000
 Stoichiometry    C2Cl3F3
 Framework group  CS[SG(C2ClF),X(Cl2F2)]
 Deg. of freedom    11
 Full point group                 CS      NOp   2
 Largest Abelian subgroup         CS      NOp   2
 Largest concise Abelian subgroup CS      NOp   2
                         Standard orientation:                         
 ---------------------------------------------------------------------
 Center     Atomic      Atomic             Coordinates (Angstroms)
 Number     Number       Type             X           Y           Z
 ---------------------------------------------------------------------
      1          6           0        0.132947    0.965450   -0.000000
      2          6           0       -0.604552   -0.393531    0.000000
      3         17           0        1.916157    0.833310   -0.000000
      4          9           0       -0.233685    1.704646    1.086250
      5          9           0       -0.233685    1.704646   -1.086250
      6         17           0       -0.233685   -1.373813    1.458465
      7         17           0       -0.233685   -1.373813   -1.458465
      8          9           0       -1.954825   -0.174641    0.000000
 ---------------------------------------------------------------------
 Rotational constants (GHZ):           1.4122889           1.0276431           0.9697558
 Standard basis: CC-pVTZ (5D, 7F)
 There are   173 symmetry adapted cartesian basis functions of A'  symmetry.
 There are   119 symmetry adapted cartesian basis functions of A"  symmetry.
 There are   147 symmetry adapted basis functions of A'  symmetry.
 There are   105 symmetry adapted basis functions of A"  symmetry.
   252 basis functions,   542 primitive gaussians,   292 cartesian basis functions
    45 alpha electrons       45 beta electrons
       nuclear repulsion energy       691.8139435788 Hartrees.
 NAtoms=    8 NActive=    8 NUniq=    6 SFac= 1.78D+00 NAtFMM=   60 NAOKFM=F Big=F
 Integral buffers will be    131072 words long.
 Regular integral format.
 Two-electron integral symmetry is turned on.
 One-electron integrals computed using PRISM.
 NBasis=   252 RedAO= T EigKep=  1.05D-03  NBF=   147   105
 NBsUse=   252 1.00D-06 EigRej= -1.00D+00 NBFU=   147   105
 ExpMin= 1.21D-01 ExpMax= 4.56D+05 ExpMxC= 1.44D+03 IAcc=3 IRadAn=         5 AccDes= 0.00D+00
 Harris functional with IExCor=  419 and IRadAn=       5 diagonalized for initial guess.
 HarFok:  IExCor=  419 AccDes= 0.00D+00 IRadAn=         5 IDoV= 1 UseB2=F ITyADJ=14
 ICtDFT=  3500011 ScaDFX=  1.000000  1.000000  1.000000  1.000000
 FoFCou: FMM=F IPFlag=           0 FMFlag=      100000 FMFlg1=           0
         NFxFlg=           0 DoJE=T BraDBF=F KetDBF=T FulRan=T
         wScrn=  0.000000 ICntrl=       500 IOpCl=  0 I1Cent=   200000004 NGrid=           0
         NMat0=    1 NMatS0=      1 NMatT0=    0 NMatD0=    1 NMtDS0=    0 NMtDT0=    0
 Petite list used in FoFCou.
 Initial guess orbital symmetries:
       Occupied  (A') (A") (A') (A') (A") (A') (A') (A') (A') (A")
                 (A') (A') (A') (A") (A') (A") (A") (A') (A') (A")
                 (A') (A') (A") (A') (A') (A") (A') (A') (A") (A')
                 (A') (A") (A') (A') (A") (A") (A') (A") (A') (A')
                 (A") (A') (A') (A") (A")
       Virtual   (A') (A") (A') (A') (A") (A') (A') (A') (A") (A')
                 (A') (A') (A') (A") (A") (A') (A") (A') (A') (A")
                 (A") (A') (A') (A') (A") (A') (A") (A') (A") (A")
                 (A') (A") (A') (A') (A") (A') (A") (A') (A') (A")
                 (A') (A") (A') (A") (A') (A") (A') (A') (A") (A')
                 (A") (A') (A') (A') (A") (A') (A') (A") (A') (A")
                 (A') (A') (A") (A') (A') (A") (A") (A') (A') (A")
                 (A") (A') (A") (A') (A") (A") (A') (A") (A') (A")
                 (A') (A') (A') (A') (A") (A") (A") (A') (A') (A")
                 (A') (A") (A") (A') (A") (A') (A') (A") (A") (A')
                 (A") (A") (A') (A') (A') (A") (A') (A") (A') (A")
                 (A") (A') (A') (A") (A') (A") (A') (A') (A') (A')
                 (A") (A') (A') (A') (A") (A") (A') (A') (A') (A")
                 (A') (A') (A") (A") (A') (A") (A") (A') (A') (A')
                 (A") (A') (A") (A") (A') (A') (A') (A') (A") (A")
                 (A') (A') (A") (A') (A') (A") (A") (A') (A") (A')
                 (A') (A') (A") (A') (A') (A") (A") (A") (A') (A')
                 (A") (A') (A") (A") (A') (A') (A") (A') (A') (A')
                 (A') (A") (A') (A") (A') (A") (A") (A') (A") (A")
                 (A') (A') (A") (A') (A') (A") (A') (A") (A') (A")
                 (A') (A") (A') (A') (A') (A") (A')
 The electronic state of the initial guess is 1-A'.
 Requested convergence on RMS density matrix=1.00D-08 within 128 cycles.
 Requested convergence on MAX density matrix=1.00D-06.
 Requested convergence on             energy=1.00D-06.
 No special actions if energy rises.
 Integral accuracy reduced to 1.0D-05 until final iterations.
 Initial convergence to 1.0D-05 achieved.  Increase integral accuracy.
 SCF Done:  E(RB2PLYP) =  -1755.38217213     A.U. after   12 cycles
            NFock= 12  Conv=0.97D-08     -V/T= 2.0023
 DoSCS=T DFT=T ScalE2(SS,OS)=  0.270000  0.270000
 ExpMin= 1.21D-01 ExpMax= 4.56D+05 ExpMxC= 1.44D+03 IAcc=3 IRadAn=         5 AccDes= 0.00D+00
 HarFok:  IExCor=  205 AccDes= 0.00D+00 IRadAn=         5 IDoV=-2 UseB2=F ITyADJ=14
 ICtDFT= 12500011 ScaDFX=  1.000000  1.000000  1.000000  1.000000
 Range of M.O.s used for correlation:    21   252
 NBasis=   252 NAE=    45 NBE=    45 NFC=    20 NFV=     0
 NROrb=    232 NOA=    25 NOB=    25 NVA=   207 NVB=   207
 DoSCS=T DFT=T ScalE2(SS,OS)=  0.270000  0.270000
 Disk-based method using ON**2 memory for 25 occupieds at a time.
 Permanent disk used for amplitudes=   107877015 words.
 Estimated scratch disk usage=   708080056 words.
 Actual    scratch disk usage=   684614072 words.
 GetIJB would need an additional    74941106 words of memory to use all   4 processors.
 JobTyp=1 Pass  1:  I=  21 to  45 NPSUse=  2 ParTrn=F ParDer=T DoDerP=T.
 Spin components of T(2) and E(2):
     alpha-alpha T2 =       0.9469696992D-01 E2=     -0.7128037984D-01
     alpha-beta  T2 =       0.4836105166D+00 E2=     -0.3903692454D+00
     beta-beta   T2 =       0.9469696992D-01 E2=     -0.7128037984D-01
 E2(B2PLYP) =    -0.5329300051D+00 E(B2PLYP) =    -0.17559151021322D+04
 G2DrvN: will do     9 centers at a time, making    1 passes.
 Calling FoFCou, ICntrl=  3107 FMM=F I1Cent=   0 AccDes= 0.00D+00.
 End of G2Drv F.D. properties file   721 does not exist.
 End of G2Drv F.D. properties file   722 does not exist.
 End of G2Drv F.D. properties file   788 does not exist.
          IDoAtm=11111111
          Differentiating once with respect to electric field.
                with respect to dipole field.
          Differentiating once with respect to nuclear coordinates.
 CalDSu exits because no D1Ps are significant.
          There are    27 degrees of freedom in the 1st order CPHF.  IDoFFX=6 NUNeed=    27.
     24 vectors produced by pass  0 Test12= 3.45D-14 3.70D-09 XBig12= 2.96D+01 2.18D+00.
 AX will form    24 AO Fock derivatives at one time.
     24 vectors produced by pass  1 Test12= 3.45D-14 3.70D-09 XBig12= 3.02D+00 4.41D-01.
     24 vectors produced by pass  2 Test12= 3.45D-14 3.70D-09 XBig12= 1.06D-01 8.73D-02.
     24 vectors produced by pass  3 Test12= 3.45D-14 3.70D-09 XBig12= 6.78D-03 1.84D-02.
     24 vectors produced by pass  4 Test12= 3.45D-14 3.70D-09 XBig12= 9.46D-05 2.16D-03.
     24 vectors produced by pass  5 Test12= 3.45D-14 3.70D-09 XBig12= 5.47D-07 1.03D-04.
     24 vectors produced by pass  6 Test12= 3.45D-14 3.70D-09 XBig12= 2.77D-09 8.10D-06.
     11 vectors produced by pass  7 Test12= 3.45D-14 3.70D-09 XBig12= 1.56D-11 6.14D-07.
      3 vectors produced by pass  8 Test12= 3.45D-14 3.70D-09 XBig12= 7.43D-14 4.98D-08.
 InvSVY:  IOpt=1 It=  1 EMax= 3.55D-15
 Solved reduced A of dimension   182 with    27 vectors.
 End of Minotr F.D. properties file   721 does not exist.
 End of Minotr F.D. properties file   722 does not exist.
 End of Minotr F.D. properties file   788 does not exist.
 MDV=   104857600.
 DoSCS=T DFT=T ScalE2(SS,OS)=  0.270000  0.270000
 Form MO integral derivatives with frozen-active canonical formalism.
 Discarding MO integrals.
 Reordered first order wavefunction length =    173538450
 In DefCFB: NBatch=  1 ICI= 45 ICA=207 LFMax= 26
            Large arrays: LIAPS=  2741739840 LIARS=   742554540 words.
 Semi-Direct transformation.
 ModeAB=           4 MOrb=            45 LenV=     103128354
 LASXX=    316194525 LTotXX=   316194525 LenRXX=   636490800
 LTotAB=   320296275 MaxLAS=   297278100 LenRXY=           0
 NonZer=   952685325 LenScr=  1434638336 LnRSAI=   297278100
 LnScr1=   448229376 LExtra=           0 Total=   2816636612
 MaxDsk=          -1 SrtSym=           T ITran=            4
 JobTyp=0 Pass  1:  I=   1 to  45.
 DoSCS=T DFT=T ScalE2(SS,OS)=  0.270000  0.270000
 Spin components of T(2) and E(2):
     alpha-alpha T2 =       0.9469696992D-01 E2=     -0.7128037984D-01
     alpha-beta  T2 =       0.4836105166D+00 E2=     -0.3903692454D+00
     beta-beta   T2 =       0.9469696992D-01 E2=     -0.7128037984D-01
 E2(B2PLYP) =    -0.5329300051D+00 E(B2PLYP) =    -0.17559151021322D+04
          IDoAtm=11111111
          Differentiating once with respect to electric field.
                with respect to dipole field.
          Differentiating once with respect to nuclear coordinates.
          There are     1 degrees of freedom in the 1st order CPHF.  IDoFFX=0 NUNeed=     1.
 LinEq1:  Iter=  0 NonCon=     1 RMS=1.43D-03 Max=3.72D-02 NDo=     1
 AX will form     1 AO Fock derivatives at one time.
 LinEq1:  Iter=  1 NonCon=     1 RMS=6.86D-04 Max=1.54D-02 NDo=     1
 LinEq1:  Iter=  2 NonCon=     1 RMS=2.37D-04 Max=6.36D-03 NDo=     1
 LinEq1:  Iter=  3 NonCon=     1 RMS=8.46D-05 Max=2.28D-03 NDo=     1
 LinEq1:  Iter=  4 NonCon=     1 RMS=3.59D-05 Max=5.25D-04 NDo=     1
 LinEq1:  Iter=  5 NonCon=     1 RMS=1.15D-05 Max=2.49D-04 NDo=     1
 LinEq1:  Iter=  6 NonCon=     1 RMS=2.67D-06 Max=4.81D-05 NDo=     1
 LinEq1:  Iter=  7 NonCon=     1 RMS=7.86D-07 Max=1.96D-05 NDo=     1
 LinEq1:  Iter=  8 NonCon=     1 RMS=3.47D-07 Max=7.84D-06 NDo=     1
 LinEq1:  Iter=  9 NonCon=     1 RMS=1.51D-07 Max=3.75D-06 NDo=     1
 LinEq1:  Iter= 10 NonCon=     1 RMS=5.25D-08 Max=1.27D-06 NDo=     1
 LinEq1:  Iter= 11 NonCon=     1 RMS=2.48D-08 Max=5.79D-07 NDo=     1
 LinEq1:  Iter= 12 NonCon=     1 RMS=6.99D-09 Max=1.64D-07 NDo=     1
 LinEq1:  Iter= 13 NonCon=     1 RMS=2.18D-09 Max=3.42D-08 NDo=     1
 LinEq1:  Iter= 14 NonCon=     1 RMS=6.28D-10 Max=1.15D-08 NDo=     1
 LinEq1:  Iter= 15 NonCon=     1 RMS=1.72D-10 Max=2.74D-09 NDo=     1
 LinEq1:  Iter= 16 NonCon=     0 RMS=3.97D-11 Max=6.92D-10 NDo=     1
 Linear equations converged to 1.000D-10 1.000D-09 after    16 iterations.
 End of Minotr F.D. properties file   721 does not exist.
 End of Minotr F.D. properties file   722 does not exist.
 End of Minotr F.D. properties file   788 does not exist.
 Symmetrizing basis deriv contribution to polar:
 IMax=3 JMax=2 DiffMx= 0.00D+00
 G2DrvN: will do     9 centers at a time, making    1 passes.
 Calling FoFCou, ICntrl=  3107 FMM=F I1Cent=   0 AccDes= 0.00D+00.
 End of G2Drv F.D. properties file   721 does not exist.
 End of G2Drv F.D. properties file   722 does not exist.
 End of G2Drv F.D. properties file   788 does not exist.
 DoSCS=T DFT=T ScalE2(SS,OS)=  0.270000  0.270000
 Would need an additional  1737720200 words for in-memory AO integral storage.
 DD1Dir will call FoFJK  81 times, MxPair=        38
 NAB=  1035 NAA=   990 NBB=     0 NumPrc=  4.
 FoFJK:  IHMeth= 1 ICntrl=     200 DoSepK=F KAlg= 0 I1Cent=           0 FoldK=F
 IRaf= 990000000 NMat=      38 IRICut=      47 DoRegI=T DoRafI=T ISym2E=-1 IDoP0=3 IntGTp=3.
 FoFCou: FMM=F IPFlag=           0 FMFlag=           0 FMFlg1=           0
         NFxFlg=           0 DoJE=F BraDBF=F KetDBF=F FulRan=T
         wScrn=  0.000000 ICntrl=       200 IOpCl=  0 I1Cent=           0 NGrid=           0
         NMat0=   38 NMatS0=      0 NMatT0=   19 NMatD0=   38 NMtDS0=    0 NMtDT0=    0
 Petite list used in FoFCou.
 Raff kept on since  45.95% of shell-pairs survive, threshold=   0.20 IRatSp=46.
 Discarding MO integrals.

 **********************************************************************

            Population analysis using the SCF Density.

 **********************************************************************

 Orbital symmetries:
       Occupied  (A") (A') (A') (A') (A") (A') (A') (A') (A") (A')
                 (A') (A") (A') (A') (A") (A') (A") (A') (A') (A")
                 (A') (A') (A") (A') (A') (A") (A') (A') (A') (A")
                 (A') (A") (A') (A') (A") (A") (A') (A") (A') (A')
                 (A") (A') (A') (A") (A")
       Virtual   (A') (A") (A') (A') (A") (A') (A') (A') (A") (A')
                 (A') (A') (A') (A") (A") (A') (A") (A') (A') (A")
                 (A") (A') (A') (A') (A") (A') (A") (A') (A") (A")
                 (A') (A") (A') (A') (A") (A') (A") (A') (A') (A")
                 (A') (A") (A') (A") (A') (A') (A") (A') (A") (A')
                 (A") (A') (A') (A') (A") (A') (A') (A") (A') (A")
                 (A') (A') (A") (A') (A') (A") (A") (A') (A') (A")
                 (A") (A") (A') (A") (A') (A') (A") (A") (A') (A")
                 (A') (A') (A') (A') (A") (A") (A') (A") (A') (A")
                 (A') (A") (A") (A') (A") (A') (A') (A") (A') (A")
                 (A") (A') (A") (A') (A') (A") (A') (A") (A') (A")
                 (A") (A') (A') (A") (A') (A") (A') (A') (A') (A')
                 (A") (A') (A') (A') (A") (A") (A') (A') (A') (A")
                 (A') (A') (A") (A') (A") (A") (A") (A') (A') (A')
                 (A") (A') (A") (A') (A") (A') (A') (A') (A") (A")
                 (A') (A") (A') (A') (A') (A") (A") (A') (A") (A')
                 (A') (A') (A") (A') (A') (A") (A") (A") (A') (A')
                 (A") (A') (A") (A') (A") (A') (A") (A') (A') (A')
                 (A') (A") (A') (A") (A') (A") (A") (A') (A") (A")
                 (A') (A') (A") (A') (A') (A") (A') (A") (A') (A")
                 (A') (A") (A') (A') (A') (A") (A')
 The electronic state is 1-A'.
 Alpha  occ. eigenvalues -- -102.97595-102.97595-102.97554 -25.42240 -25.42161
 Alpha  occ. eigenvalues --  -25.42159 -10.90642 -10.88197  -9.96417  -9.96416
 Alpha  occ. eigenvalues --   -9.96395  -7.60480  -7.60480  -7.60448  -7.59790
 Alpha  occ. eigenvalues --   -7.59790  -7.59783  -7.59783  -7.59774  -7.59771
 Alpha  occ. eigenvalues --   -1.48111  -1.44490  -1.41432  -1.06380  -1.00861
 Alpha  occ. eigenvalues --   -0.97638  -0.87542  -0.76585  -0.70268  -0.69315
 Alpha  occ. eigenvalues --   -0.66635  -0.62853  -0.62113  -0.58704  -0.57176
 Alpha  occ. eigenvalues --   -0.54621  -0.53102  -0.49832  -0.48711  -0.44343
 Alpha  occ. eigenvalues --   -0.42900  -0.42482  -0.41171  -0.40486  -0.39513
 Alpha virt. eigenvalues --    0.01360   0.03787   0.04501   0.12377   0.16846
 Alpha virt. eigenvalues --    0.19477   0.23487   0.27059   0.28449   0.28626
 Alpha virt. eigenvalues --    0.30805   0.35239   0.35481   0.36234   0.37684
 Alpha virt. eigenvalues --    0.38079   0.38216   0.39231   0.40298   0.40464
 Alpha virt. eigenvalues --    0.42476   0.42807   0.42913   0.44974   0.45592
 Alpha virt. eigenvalues --    0.48244   0.50173   0.52395   0.55025   0.57706
 Alpha virt. eigenvalues --    0.58463   0.62444   0.66009   0.67262   0.67874
 Alpha virt. eigenvalues --    0.71786   0.74236   0.75588   0.77900   0.84471
 Alpha virt. eigenvalues --    0.87662   0.90877   0.91883   0.93549   0.95538
 Alpha virt. eigenvalues --    0.96740   0.98940   1.00787   1.04112   1.04156
 Alpha virt. eigenvalues --    1.06586   1.08039   1.10924   1.15815   1.17081
 Alpha virt. eigenvalues --    1.20871   1.25629   1.31103   1.34857   1.37020
 Alpha virt. eigenvalues --    1.37629   1.75885   1.76846   1.77949   1.89192
 Alpha virt. eigenvalues --    1.90046   1.96359   1.96786   1.97491   1.97592
 Alpha virt. eigenvalues --    2.00147   2.00919   2.01139   2.02803   2.03014
 Alpha virt. eigenvalues --    2.03965   2.04654   2.05619   2.05702   2.07332
 Alpha virt. eigenvalues --    2.07666   2.08609   2.09433   2.10385   2.10708
 Alpha virt. eigenvalues --    2.11384   2.12884   2.13016   2.15624   2.17301
 Alpha virt. eigenvalues --    2.18538   2.18712   2.19064   2.19832   2.21194
 Alpha virt. eigenvalues --    2.21217   2.24105   2.25295   2.26460   2.27733
 Alpha virt. eigenvalues --    2.30218   2.31261   2.31616   2.32439   2.33854
 Alpha virt. eigenvalues --    2.34498   2.34737   2.37661   2.39774   2.41557
 Alpha virt. eigenvalues --    2.44415   2.44665   2.46153   2.46847   2.48883
 Alpha virt. eigenvalues --    2.57911   2.58435   2.59064   2.69916   2.74095
 Alpha virt. eigenvalues --    2.74687   2.76080   2.85874   2.90939   2.97080
 Alpha virt. eigenvalues --    3.00630   3.01838   3.04077   3.14953   3.19572
 Alpha virt. eigenvalues --    3.25133   3.34202   3.38132   3.40805   3.40853
 Alpha virt. eigenvalues --    3.47442   3.49368   3.51767   3.52126   3.56823
 Alpha virt. eigenvalues --    3.58720   3.60212   3.68109   3.77337   3.77820
 Alpha virt. eigenvalues --    3.80839   3.87271   3.91502   3.92723   4.08244
 Alpha virt. eigenvalues --    4.13305   4.15025   4.15145   4.30345   4.66142
 Alpha virt. eigenvalues --    4.93225   5.06651   5.08219   5.09053   5.10234
 Alpha virt. eigenvalues --    5.14981   5.23656   5.40817   5.67797   5.98810
 Alpha virt. eigenvalues --    6.18248   7.02443   7.02730   7.02733   7.02814
 Alpha virt. eigenvalues --    7.03232   7.03358   7.04277   7.05662   7.05742
 Alpha virt. eigenvalues --    7.12847   7.13595   7.13649   7.19968   7.28287
 Alpha virt. eigenvalues --    7.35416   7.35522   7.38852   7.40162   7.43189
 Alpha virt. eigenvalues --    7.45956   7.64354   7.98617   8.50113   8.51970
 Alpha virt. eigenvalues --    8.55389   8.57563   8.59047   8.60531   8.78065
 Alpha virt. eigenvalues --    8.88535   8.98308   9.02217   9.03925   9.09552
 Alpha virt. eigenvalues --    9.19473   9.28353   9.54157  10.35064  11.70473
 Alpha virt. eigenvalues --   11.84924  12.19589
          Condensed to atoms (all electrons):
               1          2          3          4          5          6
     1  C    4.193556   0.341369   0.334052   0.374621   0.374621  -0.033844
     2  C    0.341369   4.517767  -0.049154  -0.032351  -0.032351   0.313227
     3  Cl   0.334052  -0.049154  16.902666  -0.047868  -0.047868  -0.005240
     4  F    0.374621  -0.032351  -0.047868   8.931394  -0.044816  -0.000321
     5  F    0.374621  -0.032351  -0.047868  -0.044816   8.931394   0.001241
     6  Cl  -0.033844   0.313227  -0.005240  -0.000321   0.001241  16.908466
     7  Cl  -0.033844   0.313227  -0.005240   0.001241  -0.000321  -0.075048
     8  F   -0.020965   0.350974   0.001266  -0.000408  -0.000408  -0.046415
               7          8
     1  C   -0.033844  -0.020965
     2  C    0.313227   0.350974
     3  Cl  -0.005240   0.001266
     4  F    0.001241  -0.000408
     5  F   -0.000321  -0.000408
     6  Cl  -0.075048  -0.046415
     7  Cl  16.908466  -0.046415
     8  F   -0.046415   8.940363
 Mulliken charges:
               1
     1  C    0.470435
     2  C    0.277291
     3  Cl  -0.082615
     4  F   -0.181493
     5  F   -0.181493
     6  Cl  -0.062066
     7  Cl  -0.062066
     8  F   -0.177993
 Sum of Mulliken charges =  -0.00000
 Mulliken charges with hydrogens summed into heavy atoms:
               1
     1  C    0.470435
     2  C    0.277291
     3  Cl  -0.082615
     4  F   -0.181493
     5  F   -0.181493
     6  Cl  -0.062066
     7  Cl  -0.062066
     8  F   -0.177993
 APT charges:
               1
     1  C    1.289219
     2  C    1.094334
     3  Cl  -0.262607
     4  F   -0.520173
     5  F   -0.520173
     6  Cl  -0.274058
     7  Cl  -0.274058
     8  F   -0.532484
 Sum of APT charges =  -0.00000
 APT charges with hydrogens summed into heavy atoms:
               1
     1  C    1.289219
     2  C    1.094334
     3  Cl  -0.262607
     4  F   -0.520173
     5  F   -0.520173
     6  Cl  -0.274058
     7  Cl  -0.274058
     8  F   -0.532484
 Electronic spatial extent (au):  <R**2>=           1322.8648
 Charge=             -0.0000 electrons
 Dipole moment (field-independent basis, Debye):
    X=              0.7149    Y=             -0.7355    Z=             -0.0000  Tot=              1.0257
 Quadrupole moment (field-independent basis, Debye-Ang):
   XX=            -63.7738   YY=            -64.3718   ZZ=            -63.2803
   XY=              0.2214   XZ=              0.0000   YZ=              0.0000
 Traceless Quadrupole moment (field-independent basis, Debye-Ang):
   XX=              0.0348   YY=             -0.5631   ZZ=              0.5283
   XY=              0.2214   XZ=              0.0000   YZ=              0.0000
 Octapole moment (field-independent basis, Debye-Ang**2):
  XXX=             -1.7399  YYY=              9.9321  ZZZ=              0.0000  XYY=             -3.0839
  XXY=              6.7727  XXZ=             -0.0000  XZZ=             -3.2023  YZZ=             -2.4220
  YYZ=             -0.0000  XYZ=              0.0000
 Hexadecapole moment (field-independent basis, Debye-Ang**3):
 XXXX=           -444.5375 YYYY=           -598.0444 ZZZZ=           -426.9554 XXXY=            -79.6672
 XXXZ=              0.0000 YYYX=            -83.9783 YYYZ=              0.0000 ZZZX=              0.0000
 ZZZY=              0.0000 XXYY=           -178.3800 XXZZ=           -154.2235 YYZZ=           -162.1582
 XXYZ=              0.0000 YYXZ=             -0.0000 ZZXY=            -29.3798
 N-N= 6.918139435788D+02 E-N=-5.555721383686D+03  KE= 1.751321850021D+03
 Symmetry A'   KE= 1.136318362916D+03
 Symmetry A"   KE= 6.150034871050D+02
  Exact polarizability:      58.731       0.483      56.005       0.000      -0.000      63.864
 Approx polarizability:      73.869      -4.513      66.965      -0.000       0.000      79.504
 Calling FoFJK, ICntrl=  10100127 FMM=F ISym2X=1 I1Cent= 0 IOpClX= 0 NMat=1 NMatS=1 NMatT=0.
 ***** Axes restored to original set *****
 -------------------------------------------------------------------
 Center     Atomic                   Forces (Hartrees/Bohr)
 Number     Number              X              Y              Z
 -------------------------------------------------------------------
      1        6          -0.011422492    0.000000000   -0.033586540
      2        6          -0.004331130    0.000000000    0.029256550
      3       17          -0.008101214   -0.000000000    0.009053601
      4        9           0.009669329   -0.012710667    0.014950961
      5        9           0.009669329    0.012710667    0.014950961
      6       17          -0.004478492   -0.006389365   -0.010141122
      7       17          -0.004478492    0.006389365   -0.010141122
      8        9           0.013473161   -0.000000000   -0.014343289
 -------------------------------------------------------------------
 Cartesian Forces:  Max     0.033586540 RMS     0.012833403
 -----------------------------------------------------------------------------------------------
                       Internal Coordinate Forces (Hartree/Bohr or radian)
  Cent   Atom   N1       Length/X         N2         Alpha/Y        N3         Beta/Z          J
 -----------------------------------------------------------------------------------------------
      1  C 
      2  C        1  -0.005369(     1)
      3  Cl       1  -0.011105(     2)      2  -0.016650(     8)
      4  F        1  -0.020109(     3)      2  -0.021864(     9)      3   0.003639(    14)     0
      5  F        1  -0.020109(     4)      2  -0.021864(    10)      3  -0.003639(    15)     0
      6  Cl       2  -0.011033(     5)      1  -0.021788(    11)      3   0.002762(    16)     0
      7  Cl       2  -0.011033(     6)      1  -0.021788(    12)      3  -0.002762(    17)     0
      8  F        2  -0.017453(     7)      1  -0.023498(    13)      3   0.000000(    18)     0
 -----------------------------------------------------------------------------------------------
 Internal  Forces:  Max     0.023497845 RMS     0.015430152

 GradGradGradGradGradGradGradGradGradGradGradGradGradGradGradGradGradGrad
 Berny optimization.
 Search for a local minimum.
 Step number   1 out of a maximum of   28
 All quantities printed in internal units (Hartrees-Bohrs-Radians)
 Second derivative matrix not updated -- analytic derivatives used.
 The second derivative matrix:
                          r2        r3        a3        r4        a4
           r2           0.25502
           r3           0.01195   0.19440
           a3           0.04073  -0.01264   0.41552
           r4           0.01799   0.03787  -0.03680   0.33375
           a4           0.03518  -0.03871   0.13743  -0.01027   0.42775
           d4          -0.00133  -0.04713   0.08510   0.01386  -0.02455
           r5           0.01799   0.03787  -0.03680   0.05021  -0.03943
           a5           0.03518  -0.03871   0.13743  -0.03943   0.14596
           d5           0.00133   0.04713  -0.08510  -0.06634   0.10600
           r6           0.01090   0.00255   0.00476   0.00209   0.00109
           a6           0.03561   0.00532   0.02793  -0.00067   0.01151
           d6           0.00239   0.00008   0.01930   0.00472  -0.00970
           r7           0.01090   0.00255   0.00476   0.00158   0.01153
           a7           0.03561   0.00532   0.02793   0.01339   0.02882
           d7          -0.00239  -0.00008  -0.01930   0.00043  -0.00114
           r8           0.01653   0.00159   0.01216   0.00322  -0.00524
           a8           0.02966   0.01236   0.02819  -0.00465  -0.00285
           d8           0.00000  -0.00000  -0.00000  -0.00703   0.00172
                          d4        r5        a5        d5        r6
           d4           0.43032
           r5           0.06634   0.33375
           a5          -0.10600  -0.01027   0.42775
           d5          -0.25010  -0.01386   0.02455   0.43032
           r6           0.00246   0.00158   0.01153   0.00010   0.18447
           a6          -0.00940   0.01339   0.02882   0.00222  -0.00901
           d6           0.00571  -0.00043   0.00114   0.00424  -0.00439
           r7          -0.00010   0.00209   0.00109  -0.00246   0.02847
           a7          -0.00222  -0.00067   0.01151   0.00940  -0.03508
           d7           0.00424  -0.00472   0.00970   0.00571  -0.04416
           r8          -0.00856   0.00322  -0.00524   0.00856   0.03783
           a8           0.00284  -0.00465  -0.00285  -0.00284  -0.03333
           d8           0.00307   0.00703  -0.00172   0.00307   0.05031
                          a6        d6        r7        a7        d7
           a6           0.39913
           d6           0.01003   0.37229
           r7          -0.03508   0.04416   0.18447
           a7           0.13151  -0.08678  -0.00901   0.39913
           d7           0.08678  -0.15892   0.00439  -0.01003   0.37229
           r8          -0.03298  -0.05391   0.03783  -0.03298   0.05391
           a8           0.12100   0.09092  -0.03333   0.12100  -0.09092
           d8          -0.08351  -0.19288  -0.05031   0.08351  -0.19288
                          r8        a8        d8
           r8           0.32659
           a8          -0.00349   0.40081
           d8          -0.00000  -0.00000   0.39655
 ITU=  0
     Eigenvalues ---    0.01525   0.10459   0.12383   0.12611   0.15250
     Eigenvalues ---    0.21722   0.23374   0.23554   0.24674   0.30764
     Eigenvalues ---    0.33062   0.35200   0.39049   0.61089   0.64003
     Eigenvalues ---    0.66340   0.73110   0.80259
 RFO step:  Lambda=-9.17297924D-03 EMin= 1.52546299D-02
 Linear search not attempted -- first point.
 Variable       Old X    -DE/DX   Delta X   Delta X   Delta X     New X
                                 (Linear)    (Quad)   (Total)
    r2        2.92189  -0.00537   0.00000   0.02351   0.02351   2.94541
    r3        3.37902  -0.01110   0.00000  -0.04348  -0.04348   3.33554
    a3        1.99404  -0.01665   0.00000  -0.01954  -0.01954   1.97450
    r4        2.57778  -0.02011   0.00000  -0.05429  -0.05429   2.52348
    a4        1.92632  -0.02186   0.00000  -0.03837  -0.03837   1.88795
    d4        4.15650   0.00364   0.00000   0.00317   0.00317   4.15968
    r5        2.57778  -0.02011   0.00000  -0.05429  -0.05429   2.52348
    a5        1.92632  -0.02186   0.00000  -0.03837  -0.03837   1.88795
    d5        2.12668  -0.00364   0.00000  -0.00317  -0.00317   2.12351
    r6        3.39395  -0.01103   0.00000  -0.05551  -0.05551   3.33844
    a6        1.96192  -0.02179   0.00000  -0.02971  -0.02971   1.93222
    d6        1.07250   0.00276   0.00000   0.01031   0.01031   1.08281
    r7        3.39395  -0.01103   0.00000  -0.05551  -0.05551   3.33844
    a7        1.96192  -0.02179   0.00000  -0.02971  -0.02971   1.93222
    d7        5.21068  -0.00276   0.00000  -0.01031  -0.01031   5.20037
    r8        2.58496  -0.01745   0.00000  -0.04281  -0.04281   2.54215
    a8        1.90730  -0.02350   0.00000  -0.05460  -0.05460   1.85270
    d8        3.14159   0.00000   0.00000   0.00000   0.00000   3.14159
         Item               Value     Threshold  Converged?
 Maximum Force            0.023498     0.000002     NO 
 RMS     Force            0.015430     0.000001     NO 
 Maximum Displacement     0.055512     0.000006     NO 
 RMS     Displacement     0.036998     0.000004     NO 
 Predicted change in Energy=-4.699501D-03
 GradGradGradGradGradGradGradGradGradGradGradGradGradGradGradGradGradGrad

 ---------------------------------------------------------------------------------------------------
                            Z-MATRIX (ANGSTROMS AND DEGREES)
   CD    Cent   Atom    N1       Length/X        N2       Alpha/Y        N3        Beta/Z          J
 ---------------------------------------------------------------------------------------------------
      1      1  C 
      2      2  C        1   1.558642(     1)
      3      3  Cl       1   1.765090(     2)      2  113.131(     8)
      4      4  F        1   1.335369(     3)      2  108.171(     9)      3  238.332(    14)      0
      5      5  F        1   1.335369(     4)      2  108.171(    10)      3  121.668(    15)      0
      6      6  Cl       2   1.766624(     5)      1  110.708(    11)      3   62.041(    16)      0
      7      7  Cl       2   1.766624(     6)      1  110.708(    12)      3  297.959(    17)      0
      8      8  F        2   1.345248(     7)      1  106.152(    13)      3  180.000(    18)      0
 ---------------------------------------------------------------------------------------------------
                         Z-Matrix orientation:                         
 ---------------------------------------------------------------------
 Center     Atomic      Atomic             Coordinates (Angstroms)
 Number     Number       Type             X           Y           Z
 ---------------------------------------------------------------------
      1          6           0        0.000000    0.000000    0.000000
      2          6           0        0.000000    0.000000    1.558642
      3         17           0        1.623198    0.000000   -0.693376
      4          9           0       -0.666103    1.079854   -0.416450
      5          9           0       -0.666103   -1.079854   -0.416450
      6         17           0        0.774763    1.459612    2.183330
      7         17           0        0.774763   -1.459612    2.183330
      8          9           0       -1.292149   -0.000000    1.932867
 ---------------------------------------------------------------------
                    Distance matrix (angstroms):
                    1          2          3          4          5
     1  C    0.000000
     2  C    1.558642   0.000000
     3  Cl   1.765090   2.776033   0.000000
     4  F    1.335369   2.347503   2.546305   0.000000
     5  F    1.335369   2.347503   2.546305   2.159709   0.000000
     6  Cl   2.738185   1.766624   3.335529   2.996526   3.909456
     7  Cl   2.738185   1.766624   3.335529   3.909456   2.996526
     8  F    2.325000   1.345248   3.923825   2.660322   2.660322
                    6          7          8
     6  Cl   0.000000
     7  Cl   2.919225   0.000000
     8  F    2.542700   2.542700   0.000000
 Stoichiometry    C2Cl3F3
 Framework group  CS[SG(C2ClF),X(Cl2F2)]
 Deg. of freedom    11
 Full point group                 CS      NOp   2
 Largest Abelian subgroup         CS      NOp   2
 Largest concise Abelian subgroup CS      NOp   2
                         Standard orientation:                         
 ---------------------------------------------------------------------
 Center     Atomic      Atomic             Coordinates (Angstroms)
 Number     Number       Type             X           Y           Z
 ---------------------------------------------------------------------
      1          6           0        0.145403    0.957256    0.000000
      2          6           0       -0.610155   -0.406012   -0.000000
      3         17           0        1.901251    0.776866    0.000000
      4          9           0       -0.235328    1.644400    1.079854
      5          9           0       -0.235328    1.644400   -1.079854
      6         17           0       -0.235328   -1.327965    1.459612
      7         17           0       -0.235328   -1.327965   -1.459612
      8          9           0       -1.921741   -0.106954   -0.000000
 ---------------------------------------------------------------------
 Rotational constants (GHZ):           1.4247329           1.0807344           1.0117245
 Standard basis: CC-pVTZ (5D, 7F)
 There are   173 symmetry adapted cartesian basis functions of A'  symmetry.
 There are   119 symmetry adapted cartesian basis functions of A"  symmetry.
 There are   147 symmetry adapted basis functions of A'  symmetry.
 There are   105 symmetry adapted basis functions of A"  symmetry.
   252 basis functions,   542 primitive gaussians,   292 cartesian basis functions
    45 alpha electrons       45 beta electrons
       nuclear repulsion energy       702.9800768070 Hartrees.
 NAtoms=    8 NActive=    8 NUniq=    6 SFac= 1.78D+00 NAtFMM=   60 NAOKFM=F Big=F
 Integral buffers will be    131072 words long.
 Regular integral format.
 Two-electron integral symmetry is turned on.
 One-electron integrals computed using PRISM.
 NBasis=   252 RedAO= T EigKep=  1.07D-03  NBF=   147   105
 NBsUse=   252 1.00D-06 EigRej= -1.00D+00 NBFU=   147   105
 Initial guess from the checkpoint file:  "checkpoint.chk"
 B after Tr=     0.000000   -0.000000   -0.000000
         Rot=    0.999980    0.000000   -0.000000    0.006383 Ang=   0.73 deg.
 Initial guess orbital symmetries:
       Occupied  (A") (A') (A') (A') (A") (A') (A') (A') (A") (A')
                 (A') (A") (A') (A') (A") (A') (A") (A') (A') (A")
                 (A') (A') (A") (A') (A') (A") (A') (A') (A') (A")
                 (A') (A") (A') (A') (A") (A") (A') (A") (A') (A')
                 (A") (A') (A') (A") (A")
       Virtual   (A') (A") (A') (A') (A") (A') (A') (A') (A") (A')
                 (A') (A') (A') (A") (A") (A') (A") (A') (A') (A")
                 (A") (A') (A') (A') (A") (A') (A") (A') (A") (A")
                 (A') (A") (A') (A') (A") (A') (A") (A') (A') (A")
                 (A') (A") (A') (A") (A') (A') (A") (A') (A") (A')
                 (A") (A') (A') (A') (A") (A') (A') (A") (A') (A")
                 (A') (A') (A") (A') (A') (A") (A") (A') (A') (A")
                 (A") (A") (A') (A") (A') (A') (A") (A") (A') (A")
                 (A') (A') (A') (A') (A") (A") (A') (A") (A') (A")
                 (A') (A") (A") (A') (A") (A') (A') (A") (A') (A")
                 (A") (A') (A") (A') (A') (A") (A') (A") (A') (A")
                 (A") (A') (A') (A") (A') (A") (A') (A') (A') (A')
                 (A") (A') (A') (A') (A") (A") (A') (A') (A') (A")
                 (A') (A') (A") (A') (A") (A") (A") (A') (A') (A')
                 (A") (A') (A") (A') (A") (A') (A') (A') (A") (A")
                 (A') (A") (A') (A') (A') (A") (A") (A') (A") (A')
                 (A') (A') (A") (A') (A') (A") (A") (A") (A') (A')
                 (A") (A') (A") (A') (A") (A') (A") (A') (A') (A')
                 (A') (A") (A') (A") (A') (A") (A") (A') (A") (A")
                 (A') (A') (A") (A') (A') (A") (A') (A") (A') (A")
                 (A') (A") (A') (A') (A') (A") (A')
 ExpMin= 1.21D-01 ExpMax= 4.56D+05 ExpMxC= 1.44D+03 IAcc=3 IRadAn=         5 AccDes= 0.00D+00
 Harris functional with IExCor=  419 and IRadAn=       5 diagonalized for initial guess.
 HarFok:  IExCor=  419 AccDes= 0.00D+00 IRadAn=         5 IDoV= 1 UseB2=F ITyADJ=14
 ICtDFT=  3500011 ScaDFX=  1.000000  1.000000  1.000000  1.000000
 FoFCou: FMM=F IPFlag=           0 FMFlag=      100000 FMFlg1=           0
         NFxFlg=           0 DoJE=T BraDBF=F KetDBF=T FulRan=T
         wScrn=  0.000000 ICntrl=       500 IOpCl=  0 I1Cent=   200000004 NGrid=           0
         NMat0=    1 NMatS0=      1 NMatT0=    0 NMatD0=    1 NMtDS0=    0 NMtDT0=    0
 Petite list used in FoFCou.
 Requested convergence on RMS density matrix=1.00D-08 within 128 cycles.
 Requested convergence on MAX density matrix=1.00D-06.
 Requested convergence on             energy=1.00D-06.
 No special actions if energy rises.
 Integral accuracy reduced to 1.0D-05 until final iterations.
 Initial convergence to 1.0D-05 achieved.  Increase integral accuracy.
 SCF Done:  E(RB2PLYP) =  -1755.38883801     A.U. after   12 cycles
            NFock= 12  Conv=0.19D-08     -V/T= 2.0021
 DoSCS=T DFT=T ScalE2(SS,OS)=  0.270000  0.270000
 ExpMin= 1.21D-01 ExpMax= 4.56D+05 ExpMxC= 1.44D+03 IAcc=3 IRadAn=         5 AccDes= 0.00D+00
 HarFok:  IExCor=  205 AccDes= 0.00D+00 IRadAn=         5 IDoV=-2 UseB2=F ITyADJ=14
 ICtDFT= 12500011 ScaDFX=  1.000000  1.000000  1.000000  1.000000
 Range of M.O.s used for correlation:    21   252
 NBasis=   252 NAE=    45 NBE=    45 NFC=    20 NFV=     0
 NROrb=    232 NOA=    25 NOB=    25 NVA=   207 NVB=   207
 DoSCS=T DFT=T ScalE2(SS,OS)=  0.270000  0.270000
 Disk-based method using ON**2 memory for 25 occupieds at a time.
 Permanent disk used for amplitudes=   107877015 words.
 Estimated scratch disk usage=   708934992 words.
 Actual    scratch disk usage=   685469520 words.
 GetIJB would need an additional    74944272 words of memory to use all   4 processors.
 JobTyp=1 Pass  1:  I=  21 to  45 NPSUse=  2 ParTrn=F ParDer=T DoDerP=T.
 Spin components of T(2) and E(2):
     alpha-alpha T2 =       0.9339924117D-01 E2=     -0.7117935616D-01
     alpha-beta  T2 =       0.4739155329D+00 E2=     -0.3883850086D+00
     beta-beta   T2 =       0.9339924117D-01 E2=     -0.7117935616D-01
 E2(B2PLYP) =    -0.5307437210D+00 E(B2PLYP) =    -0.17559195817338D+04
 G2DrvN: will do     9 centers at a time, making    1 passes.
 Calling FoFCou, ICntrl=  3107 FMM=F I1Cent=   0 AccDes= 0.00D+00.
 End of G2Drv F.D. properties file   721 does not exist.
 End of G2Drv F.D. properties file   722 does not exist.
 End of G2Drv F.D. properties file   788 does not exist.
          IDoAtm=11111111
          Differentiating once with respect to electric field.
                with respect to dipole field.
          Differentiating once with respect to nuclear coordinates.
 CalDSu exits because no D1Ps are significant.
          There are    27 degrees of freedom in the 1st order CPHF.  IDoFFX=6 NUNeed=    27.
     24 vectors produced by pass  0 Test12= 3.45D-14 3.70D-09 XBig12= 2.87D+01 2.20D+00.
 AX will form    24 AO Fock derivatives at one time.
     24 vectors produced by pass  1 Test12= 3.45D-14 3.70D-09 XBig12= 2.90D+00 4.33D-01.
     24 vectors produced by pass  2 Test12= 3.45D-14 3.70D-09 XBig12= 9.04D-02 8.18D-02.
     24 vectors produced by pass  3 Test12= 3.45D-14 3.70D-09 XBig12= 5.11D-03 1.64D-02.
     24 vectors produced by pass  4 Test12= 3.45D-14 3.70D-09 XBig12= 6.62D-05 1.84D-03.
     24 vectors produced by pass  5 Test12= 3.45D-14 3.70D-09 XBig12= 4.73D-07 9.19D-05.
     24 vectors produced by pass  6 Test12= 3.45D-14 3.70D-09 XBig12= 2.05D-09 6.77D-06.
     11 vectors produced by pass  7 Test12= 3.45D-14 3.70D-09 XBig12= 1.01D-11 4.23D-07.
      3 vectors produced by pass  8 Test12= 3.45D-14 3.70D-09 XBig12= 5.25D-14 3.74D-08.
 InvSVY:  IOpt=1 It=  1 EMax= 2.09D-15
 Solved reduced A of dimension   182 with    27 vectors.
 End of Minotr F.D. properties file   721 does not exist.
 End of Minotr F.D. properties file   722 does not exist.
 End of Minotr F.D. properties file   788 does not exist.
 MDV=   104857600.
 DoSCS=T DFT=T ScalE2(SS,OS)=  0.270000  0.270000
 Form MO integral derivatives with frozen-active canonical formalism.
 Discarding MO integrals.
 Reordered first order wavefunction length =    173538450
 In DefCFB: NBatch=  1 ICI= 45 ICA=207 LFMax= 26
            Large arrays: LIAPS=  2741739840 LIARS=   742554540 words.
 Semi-Direct transformation.
 ModeAB=           4 MOrb=            45 LenV=     103126450
 LASXX=    316194525 LTotXX=   316194525 LenRXX=   636490800
 LTotAB=   320296275 MaxLAS=   298185300 LenRXY=           0
 NonZer=   952685325 LenScr=  1434638336 LnRSAI=   298185300
 LnScr1=   449597440 LExtra=           0 Total=   2818911876
 MaxDsk=          -1 SrtSym=           T ITran=            4
 JobTyp=0 Pass  1:  I=   1 to  45.
 DoSCS=T DFT=T ScalE2(SS,OS)=  0.270000  0.270000
 Spin components of T(2) and E(2):
     alpha-alpha T2 =       0.9339924117D-01 E2=     -0.7117935616D-01
     alpha-beta  T2 =       0.4739155329D+00 E2=     -0.3883850086D+00
     beta-beta   T2 =       0.9339924117D-01 E2=     -0.7117935616D-01
 E2(B2PLYP) =    -0.5307437210D+00 E(B2PLYP) =    -0.17559195817338D+04
          IDoAtm=11111111
          Differentiating once with respect to electric field.
                with respect to dipole field.
          Differentiating once with respect to nuclear coordinates.
          There are     1 degrees of freedom in the 1st order CPHF.  IDoFFX=0 NUNeed=     1.
 LinEq1:  Iter=  0 NonCon=     1 RMS=1.37D-03 Max=3.74D-02 NDo=     1
 AX will form     1 AO Fock derivatives at one time.
 LinEq1:  Iter=  1 NonCon=     1 RMS=6.36D-04 Max=1.47D-02 NDo=     1
 LinEq1:  Iter=  2 NonCon=     1 RMS=2.15D-04 Max=5.95D-03 NDo=     1
 LinEq1:  Iter=  3 NonCon=     1 RMS=7.61D-05 Max=2.05D-03 NDo=     1
 LinEq1:  Iter=  4 NonCon=     1 RMS=3.17D-05 Max=5.01D-04 NDo=     1
 LinEq1:  Iter=  5 NonCon=     1 RMS=1.02D-05 Max=2.35D-04 NDo=     1
 LinEq1:  Iter=  6 NonCon=     1 RMS=2.33D-06 Max=3.84D-05 NDo=     1
 LinEq1:  Iter=  7 NonCon=     1 RMS=6.97D-07 Max=1.02D-05 NDo=     1
 LinEq1:  Iter=  8 NonCon=     1 RMS=3.19D-07 Max=5.71D-06 NDo=     1
 LinEq1:  Iter=  9 NonCon=     1 RMS=1.21D-07 Max=2.60D-06 NDo=     1
 LinEq1:  Iter= 10 NonCon=     1 RMS=4.10D-08 Max=1.21D-06 NDo=     1
 LinEq1:  Iter= 11 NonCon=     1 RMS=2.01D-08 Max=4.58D-07 NDo=     1
 LinEq1:  Iter= 12 NonCon=     1 RMS=5.34D-09 Max=1.01D-07 NDo=     1
 LinEq1:  Iter= 13 NonCon=     1 RMS=1.51D-09 Max=3.44D-08 NDo=     1
 LinEq1:  Iter= 14 NonCon=     1 RMS=3.93D-10 Max=8.15D-09 NDo=     1
 LinEq1:  Iter= 15 NonCon=     1 RMS=1.09D-10 Max=1.98D-09 NDo=     1
 LinEq1:  Iter= 16 NonCon=     0 RMS=2.76D-11 Max=4.64D-10 NDo=     1
 Linear equations converged to 1.000D-10 1.000D-09 after    16 iterations.
 End of Minotr F.D. properties file   721 does not exist.
 End of Minotr F.D. properties file   722 does not exist.
 End of Minotr F.D. properties file   788 does not exist.
 Symmetrizing basis deriv contribution to polar:
 IMax=3 JMax=2 DiffMx= 0.00D+00
 G2DrvN: will do     9 centers at a time, making    1 passes.
 Calling FoFCou, ICntrl=  3107 FMM=F I1Cent=   0 AccDes= 0.00D+00.
 End of G2Drv F.D. properties file   721 does not exist.
 End of G2Drv F.D. properties file   722 does not exist.
 End of G2Drv F.D. properties file   788 does not exist.
 DoSCS=T DFT=T ScalE2(SS,OS)=  0.270000  0.270000
 Would need an additional  1737720200 words for in-memory AO integral storage.
 DD1Dir will call FoFJK  81 times, MxPair=        38
 NAB=  1035 NAA=   990 NBB=     0 NumPrc=  4.
 FoFJK:  IHMeth= 1 ICntrl=     200 DoSepK=F KAlg= 0 I1Cent=           0 FoldK=F
 IRaf= 990000000 NMat=      38 IRICut=      47 DoRegI=T DoRafI=T ISym2E=-1 IDoP0=3 IntGTp=3.
 FoFCou: FMM=F IPFlag=           0 FMFlag=           0 FMFlg1=           0
         NFxFlg=           0 DoJE=F BraDBF=F KetDBF=F FulRan=T
         wScrn=  0.000000 ICntrl=       200 IOpCl=  0 I1Cent=           0 NGrid=           0
         NMat0=   38 NMatS0=      0 NMatT0=   19 NMatD0=   38 NMtDS0=    0 NMtDT0=    0
 Petite list used in FoFCou.
 Raff kept on since  47.10% of shell-pairs survive, threshold=   0.20 IRatSp=47.
 Discarding MO integrals.
 Calling FoFJK, ICntrl=  10100127 FMM=F ISym2X=1 I1Cent= 0 IOpClX= 0 NMat=1 NMatS=1 NMatT=0.
 ***** Axes restored to original set *****
 -------------------------------------------------------------------
 Center     Atomic                   Forces (Hartrees/Bohr)
 Number     Number              X              Y              Z
 -------------------------------------------------------------------
      1        6           0.001363207    0.000000000    0.000265738
      2        6           0.000867074    0.000000000    0.000314459
      3       17           0.000326302    0.000000000   -0.000269510
      4        9          -0.000877756    0.001406604   -0.000846975
      5        9          -0.000877756   -0.001406604   -0.000846975
      6       17           0.000282949    0.000528620    0.000373341
      7       17           0.000282949   -0.000528620    0.000373341
      8        9          -0.001366969   -0.000000000    0.000636581
 -------------------------------------------------------------------
 Cartesian Forces:  Max     0.001406604 RMS     0.000740582
 -----------------------------------------------------------------------------------------------
                       Internal Coordinate Forces (Hartree/Bohr or radian)
  Cent   Atom   N1       Length/X         N2         Alpha/Y        N3         Beta/Z          J
 -----------------------------------------------------------------------------------------------
      1  C 
      2  C        1   0.001698(     1)
      3  Cl       1   0.000406(     2)      2   0.000399(     8)
      4  F        1   0.001839(     3)      2   0.000726(     9)      3  -0.000021(    14)     0
      5  F        1   0.001839(     4)      2   0.000726(    10)      3   0.000021(    15)     0
      6  Cl       2   0.000693(     5)      1   0.000458(    11)      3  -0.000007(    16)     0
      7  Cl       2   0.000693(     6)      1   0.000458(    12)      3   0.000007(    17)     0
      8  F        2   0.001490(     7)      1   0.000588(    13)      3   0.000000(    18)     0
 -----------------------------------------------------------------------------------------------
 Internal  Forces:  Max     0.001839437 RMS     0.000912075

 GradGradGradGradGradGradGradGradGradGradGradGradGradGradGradGradGradGrad
 Berny optimization.
 Search for a local minimum.
 Step number   2 out of a maximum of   28
 All quantities printed in internal units (Hartrees-Bohrs-Radians)
 Second derivative matrix not updated -- analytic derivatives used.
 DE= -4.48D-03 DEPred=-4.70D-03 R= 9.53D-01
 TightC=F SS=  1.41D+00  RLast= 1.57D-01 DXNew= 5.0454D-01 4.7091D-01
 Trust test= 9.53D-01 RLast= 1.57D-01 DXMaxT set to 4.71D-01
 The second derivative matrix:
                          r2        r3        a3        r4        a4
           r2           0.25621
           r3           0.01417   0.22072
           a3           0.04776  -0.00281   0.43642
           r4           0.02122   0.03971  -0.03531   0.40443
           a4           0.04707  -0.03948   0.13480   0.00519   0.45977
           d4          -0.00136  -0.04866   0.08323   0.01249  -0.02252
           r5           0.02122   0.03971  -0.03531   0.05281  -0.03614
           a5           0.04707  -0.03948   0.13480  -0.03614   0.13846
           d5           0.00136   0.04866  -0.08323  -0.06766   0.10320
           r6           0.01364   0.00276   0.00521   0.00223   0.00192
           a6           0.04484   0.00608   0.03377  -0.00112   0.01850
           d6           0.00225   0.00029   0.02418   0.00559  -0.01454
           r7           0.01364   0.00276   0.00521   0.00242   0.01314
           a7           0.04484   0.00608   0.03377   0.01534   0.03159
           d7          -0.00225  -0.00029  -0.02418   0.00006  -0.00225
           r8           0.01961   0.00240   0.01414   0.00339  -0.00628
           a8           0.04170   0.01393   0.03071  -0.00549   0.00156
           d8           0.00000   0.00000   0.00000  -0.00830   0.00535
                          d4        r5        a5        d5        r6
           d4           0.45042
           r5           0.06766   0.40443
           a5          -0.10320   0.00519   0.45977
           d5          -0.25868  -0.01249   0.02252   0.45042
           r6           0.00235   0.00242   0.01314   0.00046   0.21488
           a6          -0.01502   0.01534   0.03159   0.00316   0.00589
           d6           0.00831  -0.00006   0.00225   0.00455  -0.00728
           r7          -0.00046   0.00223   0.00192  -0.00235   0.02825
           a7          -0.00316  -0.00112   0.01850   0.01502  -0.03386
           d7           0.00455  -0.00559   0.01454   0.00831  -0.04269
           r8          -0.01008   0.00339  -0.00628   0.01008   0.03957
           a8           0.00697  -0.00549   0.00156  -0.00697  -0.03229
           d8           0.00549   0.00830  -0.00535   0.00549   0.05190
                          a6        d6        r7        a7        d7
           a6           0.42364
           d6           0.00949   0.38268
           r7          -0.03386   0.04269   0.21488
           a7           0.12338  -0.08240   0.00589   0.42364
           d7           0.08240  -0.15426   0.00728  -0.00949   0.38268
           r8          -0.02947  -0.05594   0.03957  -0.02947   0.05594
           a8           0.11389   0.09142  -0.03229   0.11389  -0.09142
           d8          -0.07831  -0.20232  -0.05190   0.07831  -0.20232
                          r8        a8        d8
           r8           0.38324
           a8           0.01497   0.43336
           d8           0.00000  -0.00000   0.42045
 ITU=  1  0
     Eigenvalues ---    0.01962   0.12162   0.14283   0.14786   0.17611
     Eigenvalues ---    0.22151   0.26691   0.28305   0.28360   0.35177
     Eigenvalues ---    0.38534   0.41516   0.46369   0.61641   0.64292
     Eigenvalues ---    0.69116   0.76278   0.82972
 RFO step:  Lambda=-1.51863062D-05 EMin= 1.96217377D-02
 Quintic linear search produced a step of -0.04292.
 Variable       Old X    -DE/DX   Delta X   Delta X   Delta X     New X
                                 (Linear)    (Quad)   (Total)
    r2        2.94541   0.00170  -0.00101   0.00628   0.00527   2.95068
    r3        3.33554   0.00041   0.00187  -0.00186   0.00001   3.33554
    a3        1.97450   0.00040   0.00084  -0.00051   0.00033   1.97483
    r4        2.52348   0.00184   0.00233   0.00163   0.00396   2.52744
    a4        1.88795   0.00073   0.00165  -0.00082   0.00083   1.88878
    d4        4.15968  -0.00002  -0.00014  -0.00018  -0.00032   4.15936
    r5        2.52348   0.00184   0.00233   0.00163   0.00396   2.52744
    a5        1.88795   0.00073   0.00165  -0.00082   0.00083   1.88878
    d5        2.12351   0.00002   0.00014   0.00018   0.00032   2.12383
    r6        3.33844   0.00069   0.00238  -0.00038   0.00200   3.34044
    a6        1.93222   0.00046   0.00127  -0.00099   0.00028   1.93250
    d6        1.08281  -0.00001  -0.00044   0.00047   0.00003   1.08284
    r7        3.33844   0.00069   0.00238  -0.00038   0.00200   3.34044
    a7        1.93222   0.00046   0.00127  -0.00099   0.00028   1.93250
    d7        5.20037   0.00001   0.00044  -0.00047  -0.00003   5.20034
    r8        2.54215   0.00149   0.00184   0.00140   0.00324   2.54539
    a8        1.85270   0.00059   0.00234  -0.00141   0.00093   1.85363
    d8        3.14159   0.00000  -0.00000   0.00000   0.00000   3.14159
         Item               Value     Threshold  Converged?
 Maximum Force            0.001839     0.000002     NO 
 RMS     Force            0.000912     0.000001     NO 
 Maximum Displacement     0.005268     0.000006     NO 
 RMS     Displacement     0.002113     0.000004     NO 
 Predicted change in Energy=-1.618711D-05
 GradGradGradGradGradGradGradGradGradGradGradGradGradGradGradGradGradGrad

 ---------------------------------------------------------------------------------------------------
                            Z-MATRIX (ANGSTROMS AND DEGREES)
   CD    Cent   Atom    N1       Length/X        N2       Alpha/Y        N3        Beta/Z          J
 ---------------------------------------------------------------------------------------------------
      1      1  C 
      2      2  C        1   1.561430(     1)
      3      3  Cl       1   1.765093(     2)      2  113.149(     8)
      4      4  F        1   1.337466(     3)      2  108.219(     9)      3  238.314(    14)      0
      5      5  F        1   1.337466(     4)      2  108.219(    10)      3  121.686(    15)      0
      6      6  Cl       2   1.767682(     5)      1  110.724(    11)      3   62.042(    16)      0
      7      7  Cl       2   1.767682(     6)      1  110.724(    12)      3  297.958(    17)      0
      8      8  F        2   1.346961(     7)      1  106.205(    13)      3  180.000(    18)      0
 ---------------------------------------------------------------------------------------------------
                         Z-Matrix orientation:                         
 ---------------------------------------------------------------------
 Center     Atomic      Atomic             Coordinates (Angstroms)
 Number     Number       Type             X           Y           Z
 ---------------------------------------------------------------------
      1          6           0        0.000000    0.000000    0.000000
      2          6           0        0.000000    0.000000    1.561430
      3         17           0        1.622974    0.000000   -0.693909
      4          9           0       -0.667309    1.081044   -0.418161
      5          9           0       -0.667309   -1.081044   -0.418161
      6         17           0        0.775102    1.460354    2.186956
      7         17           0        0.775102   -1.460354    2.186956
      8          9           0       -1.293445   -0.000000    1.937336
 ---------------------------------------------------------------------
                    Distance matrix (angstroms):
                    1          2          3          4          5
     1  C    0.000000
     2  C    1.561430   0.000000
     3  Cl   1.765093   2.778596   0.000000
     4  F    1.337466   2.352177   2.547566   0.000000
     5  F    1.337466   2.352177   2.547566   2.162088   0.000000
     6  Cl   2.741568   1.767682   3.339297   3.001843   3.914829
     7  Cl   2.741568   1.767682   3.339297   3.914829   3.001843
     8  F    2.329436   1.346961   3.927970   2.666284   2.666284
                    6          7          8
     6  Cl   0.000000
     7  Cl   2.920709   0.000000
     8  F    2.544372   2.544372   0.000000
 Stoichiometry    C2Cl3F3
 Framework group  CS[SG(C2ClF),X(Cl2F2)]
 Deg. of freedom    11
 Full point group                 CS      NOp   2
 Largest Abelian subgroup         CS      NOp   2
 Largest concise Abelian subgroup CS      NOp   2
                         Standard orientation:                         
 ---------------------------------------------------------------------
 Center     Atomic      Atomic             Coordinates (Angstroms)
 Number     Number       Type             X           Y           Z
 ---------------------------------------------------------------------
      1          6           0        0.146011    0.958542    0.000000
      2          6           0       -0.610332   -0.407477   -0.000000
      3         17           0        1.901995    0.779455    0.000000
      4          9           0       -0.235232    1.647610    1.081044
      5          9           0       -0.235232    1.647610   -1.081044
      6         17           0       -0.235232   -1.330172    1.460354
      7         17           0       -0.235232   -1.330172   -1.460354
      8          9           0       -1.923990   -0.109806   -0.000000
 ---------------------------------------------------------------------
 Rotational constants (GHZ):           1.4229523           1.0778038           1.0090461
 Standard basis: CC-pVTZ (5D, 7F)
 There are   173 symmetry adapted cartesian basis functions of A'  symmetry.
 There are   119 symmetry adapted cartesian basis functions of A"  symmetry.
 There are   147 symmetry adapted basis functions of A'  symmetry.
 There are   105 symmetry adapted basis functions of A"  symmetry.
   252 basis functions,   542 primitive gaussians,   292 cartesian basis functions
    45 alpha electrons       45 beta electrons
       nuclear repulsion energy       702.2174977859 Hartrees.
 NAtoms=    8 NActive=    8 NUniq=    6 SFac= 1.78D+00 NAtFMM=   60 NAOKFM=F Big=F
 Integral buffers will be    131072 words long.
 Regular integral format.
 Two-electron integral symmetry is turned on.
 One-electron integrals computed using PRISM.
 NBasis=   252 RedAO= T EigKep=  1.08D-03  NBF=   147   105
 NBsUse=   252 1.00D-06 EigRej= -1.00D+00 NBFU=   147   105
 Initial guess from the checkpoint file:  "checkpoint.chk"
 B after Tr=     0.000000   -0.000000    0.000000
         Rot=    1.000000    0.000000   -0.000000   -0.000286 Ang=  -0.03 deg.
 Initial guess orbital symmetries:
       Occupied  (A") (A') (A') (A") (A') (A') (A') (A') (A") (A')
                 (A') (A") (A') (A') (A") (A') (A') (A") (A') (A")
                 (A') (A') (A") (A') (A') (A") (A') (A') (A') (A")
                 (A') (A") (A') (A') (A") (A") (A') (A") (A') (A')
                 (A") (A') (A') (A") (A")
       Virtual   (A') (A') (A") (A') (A") (A') (A') (A') (A') (A")
                 (A') (A') (A') (A") (A") (A') (A") (A') (A") (A')
                 (A') (A") (A') (A") (A') (A') (A") (A') (A") (A")
                 (A') (A") (A') (A") (A') (A') (A") (A') (A') (A")
                 (A') (A") (A') (A") (A') (A') (A") (A') (A") (A')
                 (A") (A') (A') (A') (A") (A') (A') (A") (A') (A")
                 (A') (A') (A') (A") (A') (A") (A") (A') (A') (A")
                 (A") (A") (A') (A") (A') (A') (A") (A") (A') (A')
                 (A") (A') (A') (A') (A") (A") (A") (A') (A') (A")
                 (A') (A") (A") (A') (A") (A') (A') (A") (A') (A")
                 (A") (A') (A') (A") (A') (A") (A') (A") (A') (A")
                 (A") (A') (A') (A") (A') (A') (A') (A") (A') (A')
                 (A') (A") (A') (A') (A") (A') (A") (A') (A') (A")
                 (A') (A') (A") (A') (A") (A") (A') (A') (A") (A")
                 (A') (A') (A") (A') (A") (A') (A') (A') (A") (A")
                 (A') (A') (A") (A') (A') (A") (A") (A') (A') (A")
                 (A') (A') (A") (A') (A') (A") (A") (A") (A') (A')
                 (A") (A') (A") (A") (A') (A") (A') (A') (A') (A')
                 (A') (A") (A') (A") (A') (A") (A") (A') (A") (A")
                 (A') (A") (A') (A') (A') (A") (A') (A") (A') (A")
                 (A') (A") (A') (A') (A') (A") (A')
 Requested convergence on RMS density matrix=1.00D-08 within 128 cycles.
 Requested convergence on MAX density matrix=1.00D-06.
 Requested convergence on             energy=1.00D-06.
 No special actions if energy rises.
 SCF Done:  E(RB2PLYP) =  -1755.38869045     A.U. after    8 cycles
            NFock=  8  Conv=0.41D-08     -V/T= 2.0022
 DoSCS=T DFT=T ScalE2(SS,OS)=  0.270000  0.270000
 ExpMin= 1.21D-01 ExpMax= 4.56D+05 ExpMxC= 1.44D+03 IAcc=3 IRadAn=         5 AccDes= 0.00D+00
 HarFok:  IExCor=  205 AccDes= 0.00D+00 IRadAn=         5 IDoV=-2 UseB2=F ITyADJ=14
 ICtDFT= 12500011 ScaDFX=  1.000000  1.000000  1.000000  1.000000
 Range of M.O.s used for correlation:    21   252
 NBasis=   252 NAE=    45 NBE=    45 NFC=    20 NFV=     0
 NROrb=    232 NOA=    25 NOB=    25 NVA=   207 NVB=   207
 DoSCS=T DFT=T ScalE2(SS,OS)=  0.270000  0.270000
 Disk-based method using ON**2 memory for 25 occupieds at a time.
 Permanent disk used for amplitudes=   107877015 words.
 Estimated scratch disk usage=   708891948 words.
 Actual    scratch disk usage=   685392684 words.
 GetIJB would need an additional    74944058 words of memory to use all   4 processors.
 JobTyp=1 Pass  1:  I=  21 to  45 NPSUse=  2 ParTrn=F ParDer=T DoDerP=T.
 Spin components of T(2) and E(2):
     alpha-alpha T2 =       0.9349678783D-01 E2=     -0.7119038175D-01
     alpha-beta  T2 =       0.4745586655D+00 E2=     -0.3885267865D+00
     beta-beta   T2 =       0.9349678783D-01 E2=     -0.7119038175D-01
 E2(B2PLYP) =    -0.5309075500D+00 E(B2PLYP) =    -0.17559195980034D+04
 G2DrvN: will do     9 centers at a time, making    1 passes.
 Calling FoFCou, ICntrl=  3107 FMM=F I1Cent=   0 AccDes= 0.00D+00.
 End of G2Drv F.D. properties file   721 does not exist.
 End of G2Drv F.D. properties file   722 does not exist.
 End of G2Drv F.D. properties file   788 does not exist.
          IDoAtm=11111111
          Differentiating once with respect to electric field.
                with respect to dipole field.
          Differentiating once with respect to nuclear coordinates.
 CalDSu exits because no D1Ps are significant.
          There are    27 degrees of freedom in the 1st order CPHF.  IDoFFX=6 NUNeed=    27.
     24 vectors produced by pass  0 Test12= 3.45D-14 3.70D-09 XBig12= 2.88D+01 2.20D+00.
 AX will form    24 AO Fock derivatives at one time.
     24 vectors produced by pass  1 Test12= 3.45D-14 3.70D-09 XBig12= 2.91D+00 4.33D-01.
     24 vectors produced by pass  2 Test12= 3.45D-14 3.70D-09 XBig12= 9.09D-02 8.23D-02.
     24 vectors produced by pass  3 Test12= 3.45D-14 3.70D-09 XBig12= 5.19D-03 1.65D-02.
     24 vectors produced by pass  4 Test12= 3.45D-14 3.70D-09 XBig12= 6.76D-05 1.86D-03.
     24 vectors produced by pass  5 Test12= 3.45D-14 3.70D-09 XBig12= 4.79D-07 9.28D-05.
     24 vectors produced by pass  6 Test12= 3.45D-14 3.70D-09 XBig12= 2.08D-09 6.78D-06.
     11 vectors produced by pass  7 Test12= 3.45D-14 3.70D-09 XBig12= 1.03D-11 4.26D-07.
      3 vectors produced by pass  8 Test12= 3.45D-14 3.70D-09 XBig12= 5.37D-14 3.79D-08.
 InvSVY:  IOpt=1 It=  1 EMax= 3.55D-15
 Solved reduced A of dimension   182 with    27 vectors.
 End of Minotr F.D. properties file   721 does not exist.
 End of Minotr F.D. properties file   722 does not exist.
 End of Minotr F.D. properties file   788 does not exist.
 MDV=   104857600.
 DoSCS=T DFT=T ScalE2(SS,OS)=  0.270000  0.270000
 Form MO integral derivatives with frozen-active canonical formalism.
 Discarding MO integrals.
 Reordered first order wavefunction length =    173538450
 In DefCFB: NBatch=  1 ICI= 45 ICA=207 LFMax= 26
            Large arrays: LIAPS=  2741739840 LIARS=   742554540 words.
 Semi-Direct transformation.
 ModeAB=           4 MOrb=            45 LenV=     103126593
 LASXX=    316194525 LTotXX=   316194525 LenRXX=   636490800
 LTotAB=   320296275 MaxLAS=   297845100 LenRXY=           0
 NonZer=   952685325 LenScr=  1434638336 LnRSAI=   297845100
 LnScr1=   449061888 LExtra=           0 Total=   2818036124
 MaxDsk=          -1 SrtSym=           T ITran=            4
 JobTyp=0 Pass  1:  I=   1 to  45.
 DoSCS=T DFT=T ScalE2(SS,OS)=  0.270000  0.270000
 Spin components of T(2) and E(2):
     alpha-alpha T2 =       0.9349678783D-01 E2=     -0.7119038175D-01
     alpha-beta  T2 =       0.4745586655D+00 E2=     -0.3885267865D+00
     beta-beta   T2 =       0.9349678783D-01 E2=     -0.7119038175D-01
 E2(B2PLYP) =    -0.5309075500D+00 E(B2PLYP) =    -0.17559195980034D+04
          IDoAtm=11111111
          Differentiating once with respect to electric field.
                with respect to dipole field.
          Differentiating once with respect to nuclear coordinates.
          There are     1 degrees of freedom in the 1st order CPHF.  IDoFFX=0 NUNeed=     1.
 LinEq1:  Iter=  0 NonCon=     1 RMS=1.38D-03 Max=3.76D-02 NDo=     1
 AX will form     1 AO Fock derivatives at one time.
 LinEq1:  Iter=  1 NonCon=     1 RMS=6.39D-04 Max=1.47D-02 NDo=     1
 LinEq1:  Iter=  2 NonCon=     1 RMS=2.17D-04 Max=5.97D-03 NDo=     1
 LinEq1:  Iter=  3 NonCon=     1 RMS=7.64D-05 Max=2.05D-03 NDo=     1
 LinEq1:  Iter=  4 NonCon=     1 RMS=3.19D-05 Max=5.05D-04 NDo=     1
 LinEq1:  Iter=  5 NonCon=     1 RMS=1.03D-05 Max=2.35D-04 NDo=     1
 LinEq1:  Iter=  6 NonCon=     1 RMS=2.34D-06 Max=3.90D-05 NDo=     1
 LinEq1:  Iter=  7 NonCon=     1 RMS=6.93D-07 Max=1.05D-05 NDo=     1
 LinEq1:  Iter=  8 NonCon=     1 RMS=3.13D-07 Max=5.56D-06 NDo=     1
 LinEq1:  Iter=  9 NonCon=     1 RMS=1.20D-07 Max=2.59D-06 NDo=     1
 LinEq1:  Iter= 10 NonCon=     1 RMS=4.10D-08 Max=1.22D-06 NDo=     1
 LinEq1:  Iter= 11 NonCon=     1 RMS=2.02D-08 Max=4.58D-07 NDo=     1
 LinEq1:  Iter= 12 NonCon=     1 RMS=5.39D-09 Max=1.01D-07 NDo=     1
 LinEq1:  Iter= 13 NonCon=     1 RMS=1.53D-09 Max=3.45D-08 NDo=     1
 LinEq1:  Iter= 14 NonCon=     1 RMS=3.97D-10 Max=7.99D-09 NDo=     1
 LinEq1:  Iter= 15 NonCon=     1 RMS=1.11D-10 Max=2.01D-09 NDo=     1
 LinEq1:  Iter= 16 NonCon=     0 RMS=2.77D-11 Max=4.66D-10 NDo=     1
 Linear equations converged to 1.000D-10 1.000D-09 after    16 iterations.
 End of Minotr F.D. properties file   721 does not exist.
 End of Minotr F.D. properties file   722 does not exist.
 End of Minotr F.D. properties file   788 does not exist.
 Symmetrizing basis deriv contribution to polar:
 IMax=3 JMax=2 DiffMx= 0.00D+00
 G2DrvN: will do     9 centers at a time, making    1 passes.
 Calling FoFCou, ICntrl=  3107 FMM=F I1Cent=   0 AccDes= 0.00D+00.
 End of G2Drv F.D. properties file   721 does not exist.
 End of G2Drv F.D. properties file   722 does not exist.
 End of G2Drv F.D. properties file   788 does not exist.
 DoSCS=T DFT=T ScalE2(SS,OS)=  0.270000  0.270000
 Would need an additional  1737720200 words for in-memory AO integral storage.
 DD1Dir will call FoFJK  81 times, MxPair=        38
 NAB=  1035 NAA=   990 NBB=     0 NumPrc=  4.
 FoFJK:  IHMeth= 1 ICntrl=     200 DoSepK=F KAlg= 0 I1Cent=           0 FoldK=F
 IRaf= 990000000 NMat=      38 IRICut=      47 DoRegI=T DoRafI=T ISym2E=-1 IDoP0=3 IntGTp=3.
 FoFCou: FMM=F IPFlag=           0 FMFlag=           0 FMFlg1=           0
         NFxFlg=           0 DoJE=F BraDBF=F KetDBF=F FulRan=T
         wScrn=  0.000000 ICntrl=       200 IOpCl=  0 I1Cent=           0 NGrid=           0
         NMat0=   38 NMatS0=      0 NMatT0=   19 NMatD0=   38 NMtDS0=    0 NMtDT0=    0
 Petite list used in FoFCou.
 Raff kept on since  46.97% of shell-pairs survive, threshold=   0.20 IRatSp=47.
 Discarding MO integrals.
 Calling FoFJK, ICntrl=  10100127 FMM=F ISym2X=1 I1Cent= 0 IOpClX= 0 NMat=1 NMatS=1 NMatT=0.
 ***** Axes restored to original set *****
 -------------------------------------------------------------------
 Center     Atomic                   Forces (Hartrees/Bohr)
 Number     Number              X              Y              Z
 -------------------------------------------------------------------
      1        6          -0.000038994    0.000000000    0.000070808
      2        6          -0.000045540   -0.000000000   -0.000092879
      3       17           0.000015325    0.000000000   -0.000006337
      4        9           0.000013736   -0.000023225    0.000008977
      5        9           0.000013736    0.000023225    0.000008977
      6       17           0.000007958    0.000010204    0.000005870
      7       17           0.000007958   -0.000010204    0.000005870
      8        9           0.000025821    0.000000000   -0.000001286
 -------------------------------------------------------------------
 Cartesian Forces:  Max     0.000092879 RMS     0.000029011
 -----------------------------------------------------------------------------------------------
                       Internal Coordinate Forces (Hartree/Bohr or radian)
  Cent   Atom   N1       Length/X         N2         Alpha/Y        N3         Beta/Z          J
 -----------------------------------------------------------------------------------------------
[...]
 Vibration    10          0.816              1.344              0.773
 Vibration    11          0.862              1.236              0.642
                       Q            Log10(Q)             Ln(Q)
 Total Bot       0.453893D+05          4.656953         10.723031
 Total V=0       0.367636D+16         15.565418         35.840701
 Vib (Bot)       0.653053D-09         -9.185052        -21.149363
 Vib (Bot)    1  0.272445D+01          0.435279          1.002268
 Vib (Bot)    2  0.120486D+01          0.080935          0.186360
 Vib (Bot)    3  0.111871D+01          0.048716          0.112173
 Vib (Bot)    4  0.776909D+00         -0.109630         -0.252432
 Vib (Bot)    5  0.619881D+00         -0.207692         -0.478228
 Vib (Bot)    6  0.608498D+00         -0.215741         -0.496762
 Vib (Bot)    7  0.486340D+00         -0.313060         -0.720847
 Vib (Bot)    8  0.473221D+00         -0.324936         -0.748192
 Vib (Bot)    9  0.395779D+00         -0.402547         -0.926900
 Vib (Bot)   10  0.372258D+00         -0.429155         -0.988167
 Vib (Bot)   11  0.322677D+00         -0.491232         -1.131103
 Vib (V=0)       0.528949D+02          1.723413          3.968306
 Vib (V=0)    1  0.326995D+01          0.514542          1.184776
 Vib (V=0)    2  0.180448D+01          0.256353          0.590275
 Vib (V=0)    3  0.172536D+01          0.236879          0.545435
 Vib (V=0)    4  0.142390D+01          0.153479          0.353398
 Vib (V=0)    5  0.129640D+01          0.112739          0.259591
 Vib (V=0)    6  0.128757D+01          0.109772          0.252758
 Vib (V=0)    7  0.119751D+01          0.078281          0.180248
 Vib (V=0)    8  0.118843D+01          0.074974          0.172635
 Vib (V=0)    9  0.113768D+01          0.056022          0.128995
 Vib (V=0)   10  0.112336D+01          0.050519          0.116323
 Vib (V=0)   11  0.109508D+01          0.039446          0.090828
 Electronic      0.100000D+01          0.000000          0.000000
 Translational   0.996275D+08          7.998379         18.416949
 Rotational      0.697631D+06          5.843626         13.455446
 ***** Axes restored to original set *****
 -------------------------------------------------------------------
 Center     Atomic                   Forces (Hartrees/Bohr)
 Number     Number              X              Y              Z
 -------------------------------------------------------------------
      1        6          -0.000001886   -0.000000000   -0.000000005
      2        6           0.000002190   -0.000000000   -0.000000055
      3       17          -0.000000037   -0.000000000   -0.000000004
      4        9          -0.000000033   -0.000000001   -0.000000000
      5        9          -0.000000033    0.000000001   -0.000000000
      6       17          -0.000000037    0.000000015    0.000000022
      7       17          -0.000000037   -0.000000015    0.000000022
      8        9          -0.000000127   -0.000000000    0.000000020
 -------------------------------------------------------------------
 Cartesian Forces:  Max     0.000002190 RMS     0.000000591
 -----------------------------------------------------------------------------------------------
                       Internal Coordinate Forces (Hartree/Bohr or radian)
  Cent   Atom   N1       Length/X         N2         Alpha/Y        N3         Beta/Z          J
 -----------------------------------------------------------------------------------------------
      1  C 
      2  C        1   0.000000(     1)
      3  Cl       1  -0.000000(     2)      2   0.000000(     8)
      4  F        1   0.000000(     3)      2  -0.000000(     9)      3  -0.000000(    14)     0
      5  F        1   0.000000(     4)      2  -0.000000(    10)      3   0.000000(    15)     0
      6  Cl       2   0.000000(     5)      1   0.000000(    11)      3   0.000000(    16)     0
      7  Cl       2   0.000000(     6)      1   0.000000(    12)      3  -0.000000(    17)     0
      8  F        2   0.000000(     7)      1  -0.000000(    13)      3   0.000000(    18)     0
 -----------------------------------------------------------------------------------------------
 Internal  Forces:  Max     0.000000128 RMS     0.000000065

 GradGradGradGradGradGradGradGradGradGradGradGradGradGradGradGradGradGrad
 Berny optimization.
 Search for a local minimum.
 Step number   1 out of a maximum of    2
 All quantities printed in internal units (Hartrees-Bohrs-Radians)
 Second derivative matrix not updated -- analytic derivatives used.
 The second derivative matrix:
                          r2        r3        a3        r4        a4
           r2           0.25210
           r3           0.01404   0.22019
           a3           0.04735  -0.00308   0.43477
           r4           0.02090   0.03954  -0.03530   0.39870
           a4           0.04624  -0.03933   0.13464   0.00456   0.45672
           d4          -0.00136  -0.04845   0.08311   0.01226  -0.02225
           r5           0.02090   0.03954  -0.03530   0.05241  -0.03603
           a5           0.04624  -0.03933   0.13464  -0.03603   0.13804
           d5           0.00136   0.04845  -0.08311  -0.06722   0.10286
           r6           0.01349   0.00275   0.00518   0.00225   0.00187
           a6           0.04431   0.00603   0.03337  -0.00108   0.01809
           d6           0.00226   0.00025   0.02381   0.00555  -0.01420
           r7           0.01349   0.00275   0.00518   0.00240   0.01309
           a7           0.04431   0.00603   0.03337   0.01526   0.03151
           d7          -0.00226  -0.00025  -0.02381   0.00008  -0.00219
           r8           0.01937   0.00239   0.01408   0.00342  -0.00619
           a8           0.04094   0.01389   0.03069  -0.00541   0.00128
           d8           0.00000   0.00000   0.00000  -0.00824   0.00509
                          d4        r5        a5        d5        r6
           d4           0.44846
           r5           0.06722   0.39870
           a5          -0.10286   0.00456   0.45672
           d5          -0.25753  -0.01226   0.02225   0.44846
           r6           0.00238   0.00240   0.01309   0.00044   0.21336
           a6          -0.01465   0.01526   0.03151   0.00311   0.00551
           d6           0.00815  -0.00008   0.00219   0.00450  -0.00718
           r7          -0.00044   0.00225   0.00187  -0.00238   0.02816
           a7          -0.00311  -0.00108   0.01809   0.01465  -0.03375
           d7           0.00450  -0.00555   0.01420   0.00815  -0.04256
           r8          -0.01001   0.00342  -0.00619   0.01001   0.03937
           a8           0.00666  -0.00541   0.00128  -0.00666  -0.03217
           d8           0.00533   0.00824  -0.00509   0.00533   0.05165
                          a6        d6        r7        a7        d7
           a6           0.42145
           d6           0.00951   0.38133
           r7          -0.03375   0.04256   0.21336
           a7           0.12322  -0.08222   0.00551   0.42145
           d7           0.08222  -0.15396   0.00718  -0.00951   0.38133
           r8          -0.02945  -0.05573   0.03937  -0.02945   0.05573
           a8           0.11373   0.09115  -0.03217   0.11373  -0.09115
           d8          -0.07824  -0.20168  -0.05165   0.07824  -0.20168
                          r8        a8        d8
           r8           0.37876
           a8           0.01436   0.43046
           d8           0.00000  -0.00000   0.41880
 ITU=  0
     Eigenvalues ---    0.01932   0.12069   0.14213   0.14654   0.17478
     Eigenvalues ---    0.21819   0.26537   0.28053   0.28113   0.34926
     Eigenvalues ---    0.38051   0.41061   0.45781   0.61424   0.64081
     Eigenvalues ---    0.68868   0.75931   0.82523
 Angle between quadratic step and forces=  90.00 degrees.
 Linear search not attempted -- first point.
 Variable       Old X    -DE/DX   Delta X   Delta X   Delta X     New X
                                 (Linear)    (Quad)   (Total)
    r2        2.95032   0.00000   0.00000  -0.00000  -0.00000   2.95032
    r3        3.33567  -0.00000   0.00000  -0.00000  -0.00000   3.33567
    a3        1.97483   0.00000   0.00000   0.00000   0.00000   1.97483
    r4        2.52739   0.00000   0.00000   0.00000   0.00000   2.52739
    a4        1.88881  -0.00000   0.00000  -0.00000  -0.00000   1.88881
    d4        4.15938  -0.00000   0.00000  -0.00000  -0.00000   4.15938
    r5        2.52739   0.00000   0.00000   0.00000   0.00000   2.52739
    a5        1.88881  -0.00000   0.00000  -0.00000  -0.00000   1.88881
    d5        2.12381   0.00000   0.00000   0.00000   0.00000   2.12381
    r6        3.34054   0.00000   0.00000  -0.00000  -0.00000   3.34054
    a6        1.93251   0.00000   0.00000   0.00000   0.00000   1.93251
    d6        1.08280   0.00000   0.00000   0.00000   0.00000   1.08280
    r7        3.34054   0.00000   0.00000  -0.00000  -0.00000   3.34054
    a7        1.93251   0.00000   0.00000   0.00000   0.00000   1.93251
    d7        5.20038  -0.00000   0.00000  -0.00000  -0.00000   5.20038
    r8        2.54531   0.00000   0.00000   0.00000   0.00000   2.54531
    a8        1.85372  -0.00000   0.00000  -0.00000  -0.00000   1.85372
    d8        3.14159   0.00000   0.00000   0.00000   0.00000   3.14159
         Item               Value     Threshold  Converged?
 Maximum Force            0.000000     0.000002     YES
 RMS     Force            0.000000     0.000001     YES
 Maximum Displacement     0.000001     0.000006     YES
 RMS     Displacement     0.000000     0.000004     YES
 Predicted change in Energy=-1.414688D-13
 Optimization completed.
    -- Stationary point found.
                       ----------------------------
                       !   Optimized Parameters   !
                       ! (Angstroms and Degrees)  !
 ----------------------                            ----------------------
 !      Name          Value   Derivative information (Atomic Units)     !
 ------------------------------------------------------------------------
 !       r2          1.5612   -DE/DX =    0.0                           !
 !       r3          1.7652   -DE/DX =    0.0                           !
 !       a3        113.1493   -DE/DX =    0.0                           !
 !       r4          1.3374   -DE/DX =    0.0                           !
 !       a4        108.2209   -DE/DX =    0.0                           !
 !       d4        238.3146   -DE/DX =    0.0                           !
 !       r5          1.3374   -DE/DX =    0.0                           !
 !       a5        108.2209   -DE/DX =    0.0                           !
 !       d5        121.6854   -DE/DX =    0.0                           !
 !       r6          1.7677   -DE/DX =    0.0                           !
 !       a6        110.7246   -DE/DX =    0.0                           !
 !       d6         62.0399   -DE/DX =    0.0                           !
 !       r7          1.7677   -DE/DX =    0.0                           !
 !       a7        110.7246   -DE/DX =    0.0                           !
 !       d7        297.9601   -DE/DX =    0.0                           !
 !       r8          1.3469   -DE/DX =    0.0                           !
 !       a8        106.2106   -DE/DX =    0.0                           !
 !       d8        180.0      -DE/DX =    0.0                           !
 ------------------------------------------------------------------------
 GradGradGradGradGradGradGradGradGradGradGradGradGradGradGradGradGradGrad


 ----------------------------------------------------------------------

 Electric dipole moment (input orientation):
 (Debye = 10**-18 statcoulomb cm , SI units = C m)
                  (au)            (Debye)         (10**-30 SI)
   Tot        0.296577D+00      0.753823D+00      0.251448D+01
   x          0.285721D+00      0.726229D+00      0.242244D+01
   y          0.000000D+00      0.000000D+00      0.000000D+00
   z          0.795083D-01      0.202090D+00      0.674099D+00

 Dipole polarizability, Alpha (input orientation).
 (esu units = cm**3 , SI units = C**2 m**2 J**-1)
 Alpha(0;0):
               (au)            (10**-24 esu)      (10**-40 SI)
   iso        0.583539D+02      0.864715D+01      0.962125D+01
   aniso      0.755564D+01      0.111963D+01      0.124576D+01
   xx         0.565970D+02      0.838681D+01      0.933158D+01
   yx         0.000000D+00      0.000000D+00      0.000000D+00
   yy         0.630011D+02      0.933579D+01      0.103875D+02
   zx        -0.158453D+01     -0.234803D+00     -0.261254D+00
   zy         0.000000D+00      0.000000D+00      0.000000D+00
   zz         0.554635D+02      0.821885D+01      0.914470D+01

 ----------------------------------------------------------------------

 Dipole orientation:
     6         -0.00000000         -0.00000000          0.00000000
     6         -2.84231897         -0.00000001          0.79094000
    17          2.08559318          0.00000000          2.60326877
     9          0.42329299          2.04283021         -1.42665852
     9          0.42329300         -2.04283021         -1.42665852
    17         -3.58846883          2.75968954          2.51911985
    17         -3.58846882         -2.75968955          2.51911985
     9         -4.18211041         -0.00000001         -1.37320826

 Electric dipole moment (dipole orientation):
 (Debye = 10**-18 statcoulomb cm , SI units = C m)
                  (au)            (Debye)         (10**-30 SI)
   Tot        0.296577D+00      0.753823D+00      0.251448D+01
   x          0.000000D+00      0.000000D+00      0.000000D+00
   y          0.000000D+00      0.000000D+00      0.000000D+00
   z          0.296577D+00      0.753823D+00      0.251448D+01

 Dipole polarizability, Alpha (dipole orientation).
 (esu units = cm**3 , SI units = C**2 m**2 J**-1)
 Alpha(0;0):
               (au)            (10**-24 esu)      (10**-40 SI)
   iso        0.583539D+02      0.864715D+01      0.962125D+01
   aniso      0.755564D+01      0.111963D+01      0.124576D+01
   xx         0.563635D+02      0.835221D+01      0.929308D+01
   yx         0.000000D+00      0.000000D+00      0.000000D+00
   yy         0.630011D+02      0.933579D+01      0.103875D+02
   zx         0.164951D+01      0.244433D+00      0.271968D+00
   zy         0.000000D+00      0.000000D+00      0.000000D+00
   zz         0.556970D+02      0.825345D+01      0.918320D+01

 ----------------------------------------------------------------------
 Unable to Open any file for archive entry.
 1\1\GINC-GADI-CPU-CLX-2883\Freq\RB2PLYP-FC\CC-pVTZ\C2Cl3F3\PK8622\24-S
 ep-2020\1\\#N Geom=AllCheck Guess=TCheck SCRF=Check GenChk RB2PLYP(FC)
 /CC-pVTZ Freq\\CFC-113 - Cl2FC-CClF2 HARMONIC FREQUENCIES\\0,1\C\C,1,r
 2\Cl,1,r3,2,a3\F,1,r4,2,a4,3,d4,0\F,1,r5,2,a5,3,d5,0\Cl,2,r6,1,a6,3,d6
 ,0\Cl,2,r7,1,a7,3,d7,0\F,2,r8,1,a8,3,d8,0\\r2=1.56123987\r3=1.76516157
 \a3=113.14931596\r4=1.33743578\a4=108.22088058\d4=238.31464805\r5=1.33
 743578\a5=108.22088057\d5=121.68535193\r6=1.76773955\a6=110.72458175\d
 6=62.03993173\r7=1.76773955\a7=110.72458173\d7=297.96006836\r8=1.34691
 753\a8=106.21058567\d8=180.00000006\\Version=ES64L-G16RevC.01\State=1-
 A'\HF=-1755.3886928\MP2=-1755.919598\RMSD=2.699e-09\RMSF=5.910e-07\Zer
 oPoint=0.0237157\Thermal=0.0316013\ETot=-1755.8879968\HTot=-1755.88705
 26\GTot=-1755.9297225\Dipole=0.2857206,0.,0.0795083\DipoleDeriv=1.6822
 87,0.,-0.2964038,0.,1.1066568,0.,0.1169395,0.,1.1471463,1.1277416,0.,0
 .2747034,0.,1.5773215,0.,-0.1464401,0.,0.6210976,-0.5070015,0.,0.21497
 98,0.,-0.0541434,0.,0.2397156,0.,-0.2469894,-0.5549572,0.2983545,-0.07
 04361,0.3362633,-0.6008149,0.1102035,-0.1474516,0.2176328,-0.4262433,-
 0.5549572,-0.2983545,-0.0704361,-0.3362633,-0.6008149,-0.1102035,-0.14
 74516,-0.2176328,-0.4262433,-0.1179146,-0.1768381,-0.0618146,-0.161618
 9,-0.5514394,-0.1350752,-0.0754005,-0.1890171,-0.163301,-0.1179146,0.1
 768381,-0.0618146,0.1616189,-0.5514394,0.1350752,-0.0754005,0.1890171,
 -0.163301,-0.9572833,0.,0.0712218,0.,-0.3253263,0.,0.2354891,0.,-0.342
 1659\Polar=56.5969961,0.,63.0010559,-1.5845321,0.,55.463537\PG=CS [SG(
 C2Cl1F1),X(Cl2F2)]\NImag=0\\0.42575052,0.,0.48596472,0.03717035,0.,0.4
 6695573,-0.03516541,0.,0.01064097,0.40456238,0.,-0.03829339,0.,0.,0.32
 300771,-0.01067457,0.,-0.16165448,-0.02415216,0.,0.40739667,-0.0934529
 8,0.,0.04373176,-0.01715491,0.,0.00145922,0.19286785,0.,-0.03344393,0.
 ,0.,0.00121861,0.,0.,0.04007621,0.03328531,0.,-0.06774073,0.02547384,0
 .,-0.00371562,-0.06483104,0.,0.06639824,-0.12728775,0.09132112,-0.0506
 6377,-0.00835773,0.01509865,-0.00519315,-0.04286035,0.03045594,0.00012
 594,0.15186106,0.07929141,-0.19123606,0.06863993,0.01424282,-0.0195458
 7,0.01096078,0.02634027,-0.00461448,-0.00326727,-0.12595890,0.29159253
 ,-0.03904379,0.05706231,-0.10675753,-0.02246443,0.03467862,-0.01575671
 ,0.00688643,-0.00592674,0.00995585,0.05341151,-0.08294045,0.10456313,-
 0.12728775,-0.09132112,-0.05066377,-0.00835773,-0.01509865,-0.00519315
 ,-0.04286035,-0.03045594,0.00012594,0.01980721,0.00840574,0.00503218,0
 .15186106,-0.07929141,-0.19123606,-0.06863993,-0.01424282,-0.01954587,
 -0.01096078,-0.02634027,-0.00461448,0.00326727,-0.00840574,-0.08274321
 ,-0.00583543,0.12595890,0.29159253,-0.03904379,-0.05706231,-0.10675753
 ,-0.02246443,-0.03467862,-0.01575671,0.00688643,0.00592674,0.00995585,
 0.00503218,0.00583543,0.01615203,0.05341151,0.08294045,0.10456313,-0.0
 0325495,-0.00781773,-0.00168291,-0.04195585,-0.02432751,-0.01852779,0.
 00148861,0.00174228,0.00135743,0.00033176,-0.00096033,-0.00131374,0.00
 051114,-0.00015009,-0.00143460,0.07435174,-0.00855301,-0.01629595,-0.0
 0208211,-0.02645798,-0.09323199,-0.04086589,0.00104903,0.00036689,-0.0
 0199058,0.00007542,0.00349085,-0.00001550,-0.00000255,0.00059029,-0.00
 324824,0.06400804,0.15499407,-0.01211668,-0.02386097,-0.00408712,-0.01
 187173,-0.02734229,-0.05947378,0.00113076,-0.00218827,-0.00412778,-0.0
 0102985,-0.00091804,-0.00230680,-0.00204514,-0.00249835,-0.00665763,0.
 02779398,0.05244616,0.06084926,-0.00325495,0.00781773,-0.00168291,-0.0
 4195585,0.02432751,-0.01852779,0.00148861,-0.00174228,0.00135743,0.000
 51114,0.00015009,-0.00143460,0.00033176,0.00096033,-0.00131374,0.00663
 060,-0.00169036,0.00135602,0.07435174,0.00855301,-0.01629595,0.0020821
 1,0.02645798,-0.09323199,0.04086589,-0.00104903,0.00036689,0.00199058,
 0.00000255,0.00059029,0.00324824,-0.00007542,0.00349085,0.00001550,0.0
 0169036,-0.04184279,0.00287818,-0.06400804,0.15499407,-0.01211668,0.02
 386097,-0.00408712,-0.01187173,0.02734229,-0.05947378,0.00113076,0.002
 18827,-0.00412778,-0.00204514,0.00249835,-0.00665763,-0.00102985,0.000
 91804,-0.00230680,0.00135603,-0.00287818,0.00649809,0.02779398,-0.0524
 4616,0.06084926,-0.03604673,0.,0.01315029,-0.25161490,0.,0.08080939,0.
 00048352,0.,0.00310515,0.00599466,-0.00151109,-0.00107357,0.00599466,0
 .00151109,-0.00107357,-0.03810305,-0.02842859,-0.00321737,-0.03810305,
 0.02842859,-0.00321737,0.35139489,0.,0.00083661,0.,0.,-0.06037721,0.,0
 .,0.00064430,0.,-0.00258904,0.00246593,-0.00027106,0.00258904,0.002465
 93,0.00027106,-0.03418500,-0.00807137,0.00148358,0.03418500,-0.0080713
 7,-0.00148358,0.,0.07010717,0.04253985,0.,-0.01587122,0.05670965,0.,-0
 .09156559,0.00360568,0.,-0.00659804,0.00036227,-0.00080873,0.00080766,
 0.00036227,0.00080873,0.00080766,-0.00754839,-0.00136566,0.00930577,-0
 .00754839,0.00136566,0.00930577,-0.08848295,0.,0.09380800\\0.00000189,
 0.,0.,-0.00000219,0.,0.00000006,0.00000004,0.,0.,0.00000003,0.,0.,0.00
 000003,0.,0.,0.00000004,-0.00000001,-0.00000002,0.00000004,0.00000001,
 -0.00000002,0.00000013,0.,-0.00000002\\\@
 The archive entry for this job was punched.


 CURIOUSER AND CURIOUSER

                  -- ALICE, IN WONDERLAND
 Job cpu time:       0 days  5 hours 14 minutes  3.6 seconds.
 Elapsed time:       0 days  1 hours 53 minutes 13.3 seconds.
 File lengths (MBytes):  RWF=  28911 Int=      0 D2E=      0 Chk=      7 Scr=      1
 Normal termination of Gaussian 16 at Thu Sep 24 07:36:37 2020.
