 Entering Gaussian System, Link 0=g16
 Input=CFC-12.gjf
 Output=CFC-12.log
 Initial command:
 /apps/gaussian/g16c01/g16/l1.exe "/jobfs/11529056.gadi-pbs/Gau-370879.inp" -scrdir="/jobfs/11529056.gadi-pbs/"
 Entering Link 1 = /apps/gaussian/g16c01/g16/l1.exe PID=    370881.
  
 Copyright (c) 1988-2019, Gaussian, Inc.  All Rights Reserved.
  
 This is part of the Gaussian(R) 16 program.  It is based on
 the Gaussian(R) 09 system (copyright 2009, Gaussian, Inc.),
 the Gaussian(R) 03 system (copyright 2003, Gaussian, Inc.),
 the Gaussian(R) 98 system (copyright 1998, Gaussian, Inc.),
 the Gaussian(R) 94 system (copyright 1995, Gaussian, Inc.),
 the Gaussian 92(TM) system (copyright 1992, Gaussian, Inc.),
 the Gaussian 90(TM) system (copyright 1990, Gaussian, Inc.),
 the Gaussian 88(TM) system (copyright 1988, Gaussian, Inc.),
 the Gaussian 86(TM) system (copyright 1986, Carnegie Mellon
 University), and the Gaussian 82(TM) system (copyright 1983,
 Carnegie Mellon University). Gaussian is a federally registered
 trademark of Gaussian, Inc.
  
 This software contains proprietary and confidential information,
 including trade secrets, belonging to Gaussian, Inc.
  
 This software is provided under written license and may be
 used, copied, transmitted, or stored only in accord with that
 written license.
  
 The following legend is applicable only to US Government
 contracts under FAR:
  
                    RESTRICTED RIGHTS LEGEND
  
 Use, reproduction and disclosure by the US Government is
 subject to restrictions as set forth in subparagraphs (a)
 and (c) of the Commercial Computer Software - Restricted
 Rights clause in FAR 52.227-19.
  
 Gaussian, Inc.
 340 Quinnipiac St., Bldg. 40, Wallingford CT 06492
  
  
 ---------------------------------------------------------------
 Warning -- This program may not be used in any manner that
 competes with the business of Gaussian, Inc. or will provide
 assistance to any competitor of Gaussian, Inc.  The licensee
 of this program is prohibited from giving any competitor of
 Gaussian, Inc. access to this program.  By using this program,
 the user acknowledges that Gaussian, Inc. is engaged in the
 business of creating and licensing software in the field of
 computational chemistry and represents and warrants to the
 licensee that it is not a competitor of Gaussian, Inc. and that
 it will not use this program in any manner prohibited above.
 ---------------------------------------------------------------
  

 Cite this work as:
 Gaussian 16, Revision C.01,
 M. J. Frisch, G. W. Trucks, H. B. Schlegel, G. E. Scuseria, 
 M. A. Robb, J. R. Cheeseman, G. Scalmani, V. Barone, 
 G. A. Petersson, H. Nakatsuji, X. Li, M. Caricato, A. V. Marenich, 
 J. Bloino, B. G. Janesko, R. Gomperts, B. Mennucci, H. P. Hratchian, 
 J. V. Ortiz, A. F. Izmaylov, J. L. Sonnenberg, D. Williams-Young, 
 F. Ding, F. Lipparini, F. Egidi, J. Goings, B. Peng, A. Petrone, 
 T. Henderson, D. Ranasinghe, V. G. Zakrzewski, J. Gao, N. Rega, 
 G. Zheng, W. Liang, M. Hada, M. Ehara, K. Toyota, R. Fukuda, 
 J. Hasegawa, M. Ishida, T. Nakajima, Y. Honda, O. Kitao, H. Nakai, 
 T. Vreven, K. Throssell, J. A. Montgomery, Jr., J. E. Peralta, 
 F. Ogliaro, M. J. Bearpark, J. J. Heyd, E. N. Brothers, K. N. Kudin, 
 V. N. Staroverov, T. A. Keith, R. Kobayashi, J. Normand, 
 K. Raghavachari, A. P. Rendell, J. C. Burant, S. S. Iyengar, 
 J. Tomasi, M. Cossi, J. M. Millam, M. Klene, C. Adamo, R. Cammi, 
 J. W. Ochterski, R. L. Martin, K. Morokuma, O. Farkas, 
 J. B. Foresman, and D. J. Fox, Gaussian, Inc., Wallingford CT, 2019.
 
 ******************************************
 Gaussian 16:  ES64L-G16RevC.01  3-Jul-2019
                21-Sep-2020 
 ******************************************
 %NprocShared=4
 Will use up to    4 processors via shared memory.
 %chk=checkpoint.chk
 -------------------------------------------------------------------
 # B2PLYP/cc-pVTZ Freq Opt=(VeryTight,ZMatrix,CalcAll) Int=UltraFine
 -------------------------------------------------------------------
 1/7=1,10=4,18=40,38=1/1,3;
 2/12=2,17=6,18=5,29=3,40=1/2;
 3/5=16,6=1,11=9,25=1,30=1,71=2,74=-47,75=-5,140=1/1,2,3;
 4//1;
 5/5=2,38=5/2;
 8/6=3,8=1,10=1,19=11,30=-1/1;
 9/15=3,16=-3/6;
 11/6=1,8=1,15=11,17=12,24=-1,27=1,28=-2,29=300,32=6,42=3/1,2,10;
 10/6=2,21=1/2;
 8/6=4,8=1,10=1,19=11,30=-1/11,4;
 10/5=1,20=4/2;
 11/12=2,14=11,16=1,17=2,28=-2,42=3,76=2/2,10,12;
 6/7=2,8=2,9=2,10=2,18=1/1;
 7/10=1,12=2,25=1,44=2/1,2,3,16;
 1/7=1,10=4,18=40/3(3);
 2/29=3/2;
 7/8=1,9=1,25=1,44=-1/16;
 99//99;
 2/29=3/2;
 3/5=16,6=1,11=9,25=1,30=1,71=2,74=-47,75=-5,140=1/1,2,3;
 4/5=5,16=3,69=1/1;
 5/5=2,38=5/2;
 8/6=3,8=1,10=1,19=11,30=-1/1;
 9/15=3,16=-3/6;
 11/6=1,8=1,15=11,17=12,24=-1,27=1,28=-2,29=300,32=6,42=3/1,2,10;
 10/6=2,21=1/2;
 8/6=4,8=1,10=1,19=11,30=-1/11,4;
 10/5=1,20=4/2;
 11/12=2,14=11,16=1,17=2,28=-2,42=3,76=2/2,10,12;
 7/10=1,12=2,25=1,44=2/1,2,3,16;
 1/7=1,10=4,18=40/3(-12);
 2/29=3/2;
 6/7=2,8=2,9=2,10=2,18=1/1;
 7/8=1,9=1,25=1,44=-1/16;
 99//99;
 ------------------------------------
 CFC-12 - CCl2F2 HARMONIC FREQUENCIES
 ------------------------------------
 Symbolic Z-matrix:
 Charge =  0 Multiplicity = 1
 C
 F                    1    r2
 Cl                   1    r3       2    a3
 F                    1    r4       2    a4       3    d4       0
 Cl                   1    r5       2    a5       3    d5       0
       Variables:
  r2                    1.3579                   
  r3                    1.7653                   
  a3                  109.61                     
  r4                    1.3578                   
  a4                  106.61                     
  d4                  241.28                     
  r5                    1.7657                   
  a5                  109.6                      
  d5                  122.73                     
 

 GradGradGradGradGradGradGradGradGradGradGradGradGradGradGradGradGradGrad
 Berny optimization.
 Initialization pass.
                       ----------------------------
                       !    Initial Parameters    !
                       ! (Angstroms and Degrees)  !
 ----------------------                            ----------------------
 !      Name          Value   Derivative information (Atomic Units)     !
 ------------------------------------------------------------------------
 !       r2          1.3579   calculate D2E/DX2 analytically            !
 !       r3          1.7653   calculate D2E/DX2 analytically            !
 !       a3        109.61     calculate D2E/DX2 analytically            !
 !       r4          1.3578   calculate D2E/DX2 analytically            !
 !       a4        106.61     calculate D2E/DX2 analytically            !
 !       d4        241.28     calculate D2E/DX2 analytically            !
 !       r5          1.7657   calculate D2E/DX2 analytically            !
 !       a5        109.6      calculate D2E/DX2 analytically            !
 !       d5        122.73     calculate D2E/DX2 analytically            !
 ------------------------------------------------------------------------
 Trust Radius=3.00D-01 FncErr=1.00D-07 GrdErr=1.00D-07 EigMax=2.50D+02 EigMin=1.00D-04
 Number of steps in this run=     20 maximum allowed number of steps=    100.
 GradGradGradGradGradGradGradGradGradGradGradGradGradGradGradGradGradGrad

 ---------------------------------------------------------------------------------------------------
                            Z-MATRIX (ANGSTROMS AND DEGREES)
   CD    Cent   Atom    N1       Length/X        N2       Alpha/Y        N3        Beta/Z          J
 ---------------------------------------------------------------------------------------------------
      1      1  C 
      2      2  F        1   1.357900(     1)
      3      3  Cl       1   1.765300(     2)      2  109.610(     5)
      4      4  F        1   1.357800(     3)      2  106.610(     6)      3  241.280(     8)      0
      5      5  Cl       1   1.765700(     4)      2  109.600(     7)      3  122.730(     9)      0
 ---------------------------------------------------------------------------------------------------
                         Z-Matrix orientation:                         
 ---------------------------------------------------------------------
 Center     Atomic      Atomic             Coordinates (Angstroms)
 Number     Number       Type             X           Y           Z
 ---------------------------------------------------------------------
      1          6           0        0.000000    0.000000    0.000000
      2          9           0        0.000000    0.000000    1.357900
      3         17           0        1.662911    0.000000   -0.592463
      4          9           0       -0.625238    1.141074   -0.388135
      5         17           0       -0.899364   -1.399291   -0.592307
 ---------------------------------------------------------------------
                    Distance matrix (angstroms):
                    1          2          3          4          5
     1  C    0.000000
     2  F    1.357900   0.000000
     3  Cl   1.765300   2.563043   0.000000
     4  F    1.357800   2.177524   2.565039   0.000000
     5  Cl   1.765700   2.563235   2.919463   2.563257   0.000000
 Stoichiometry    CCl2F2
 Framework group  C1[X(CCl2F2)]
 Deg. of freedom     9
 Full point group                 C1      NOp   1
 Largest Abelian subgroup         C1      NOp   1
 Largest concise Abelian subgroup C1      NOp   1
                         Standard orientation:                         
 ---------------------------------------------------------------------
 Center     Atomic      Atomic             Coordinates (Angstroms)
 Number     Number       Type             X           Y           Z
 ---------------------------------------------------------------------
      1          6           0        0.000296    0.330330   -0.000252
      2          9           0        0.000249    1.140068    1.089802
      3         17           0        1.460198   -0.662126   -0.000993
      4          9           0       -0.002210    1.143369   -1.087717
      5         17           0       -1.459264   -0.663340   -0.000023
 ---------------------------------------------------------------------
 Rotational constants (GHZ):           3.9922500           2.6041623           2.1918391
 Standard basis: CC-pVTZ (5D, 7F)
 There are   183 symmetry adapted cartesian basis functions of A   symmetry.
 There are   158 symmetry adapted basis functions of A   symmetry.
   158 basis functions,   344 primitive gaussians,   183 cartesian basis functions
    29 alpha electrons       29 beta electrons
       nuclear repulsion energy       301.6295930784 Hartrees.
 NAtoms=    5 NActive=    5 NUniq=    5 SFac= 1.00D+00 NAtFMM=   60 NAOKFM=F Big=F
 Integral buffers will be    131072 words long.
 Regular integral format.
 Two-electron integral symmetry is turned on.
 One-electron integrals computed using PRISM.
 NBasis=   158 RedAO= T EigKep=  2.46D-03  NBF=   158
 NBsUse=   158 1.00D-06 EigRej= -1.00D+00 NBFU=   158
 ExpMin= 1.21D-01 ExpMax= 4.56D+05 ExpMxC= 1.44D+03 IAcc=3 IRadAn=         5 AccDes= 0.00D+00
 Harris functional with IExCor=  419 and IRadAn=       5 diagonalized for initial guess.
 HarFok:  IExCor=  419 AccDes= 0.00D+00 IRadAn=         5 IDoV= 1 UseB2=F ITyADJ=14
 ICtDFT=  3500011 ScaDFX=  1.000000  1.000000  1.000000  1.000000
 FoFCou: FMM=F IPFlag=           0 FMFlag=      100000 FMFlg1=           0
         NFxFlg=           0 DoJE=T BraDBF=F KetDBF=T FulRan=T
         wScrn=  0.000000 ICntrl=       500 IOpCl=  0 I1Cent=   200000004 NGrid=           0
         NMat0=    1 NMatS0=      1 NMatT0=    0 NMatD0=    1 NMtDS0=    0 NMtDT0=    0
 Petite list used in FoFCou.
 Keep R1 ints in memory in canonical form, NReq=82934847.
 Requested convergence on RMS density matrix=1.00D-08 within 128 cycles.
 Requested convergence on MAX density matrix=1.00D-06.
 Requested convergence on             energy=1.00D-06.
 No special actions if energy rises.
 Integral accuracy reduced to 1.0D-05 until final iterations.
 Initial convergence to 1.0D-05 achieved.  Increase integral accuracy.
 SCF Done:  E(RB2PLYP) =  -1157.58130727     A.U. after   12 cycles
            NFock= 12  Conv=0.40D-08     -V/T= 2.0022
 DoSCS=T DFT=T ScalE2(SS,OS)=  0.270000  0.270000
 ExpMin= 1.21D-01 ExpMax= 4.56D+05 ExpMxC= 1.44D+03 IAcc=3 IRadAn=         5 AccDes= 0.00D+00
 HarFok:  IExCor=  205 AccDes= 0.00D+00 IRadAn=         5 IDoV=-2 UseB2=F ITyADJ=14
 ICtDFT= 12500011 ScaDFX=  1.000000  1.000000  1.000000  1.000000
 Range of M.O.s used for correlation:    14   158
 NBasis=   158 NAE=    29 NBE=    29 NFC=    13 NFV=     0
 NROrb=    145 NOA=    16 NOB=    16 NVA=   129 NVB=   129
 DoSCS=T DFT=T ScalE2(SS,OS)=  0.270000  0.270000
 Disk-based method using ON**2 memory for 16 occupieds at a time.
 Permanent disk used for amplitudes=    17347017 words.
 Estimated scratch disk usage=   179896696 words.
 Actual    scratch disk usage=   174441848 words.
 GetIJB would need an additional    28625963 words of memory to use all   4 processors.
 JobTyp=1 Pass  1:  I=  14 to  29 NPSUse=  3 ParTrn=F ParDer=T DoDerP=T.
 Spin components of T(2) and E(2):
     alpha-alpha T2 =       0.5857611247D-01 E2=     -0.4496319008D-01
     alpha-beta  T2 =       0.3006400568D+00 E2=     -0.2473652900D+00
     beta-beta   T2 =       0.5857611247D-01 E2=     -0.4496319008D-01
 E2(B2PLYP) =    -0.3372916701D+00 E(B2PLYP) =    -0.11579185989424D+04
 G2DrvN: will do     6 centers at a time, making    1 passes.
 Calling FoFCou, ICntrl=  3107 FMM=F I1Cent=   0 AccDes= 0.00D+00.
 End of G2Drv F.D. properties file   721 does not exist.
 End of G2Drv F.D. properties file   722 does not exist.
 End of G2Drv F.D. properties file   788 does not exist.
          IDoAtm=11111
          Differentiating once with respect to electric field.
                with respect to dipole field.
          Differentiating once with respect to nuclear coordinates.
 Keep R1 ints in memory in canonical form, NReq=82925802.
          There are    18 degrees of freedom in the 1st order CPHF.  IDoFFX=6 NUNeed=    18.
     15 vectors produced by pass  0 Test12= 2.08D-14 5.56D-09 XBig12= 2.03D+01 2.53D+00.
 AX will form    15 AO Fock derivatives at one time.
     15 vectors produced by pass  1 Test12= 2.08D-14 5.56D-09 XBig12= 1.65D+00 4.33D-01.
     15 vectors produced by pass  2 Test12= 2.08D-14 5.56D-09 XBig12= 7.35D-02 8.50D-02.
     15 vectors produced by pass  3 Test12= 2.08D-14 5.56D-09 XBig12= 4.68D-03 2.38D-02.
     15 vectors produced by pass  4 Test12= 2.08D-14 5.56D-09 XBig12= 7.15D-05 2.24D-03.
     15 vectors produced by pass  5 Test12= 2.08D-14 5.56D-09 XBig12= 4.09D-07 1.76D-04.
     15 vectors produced by pass  6 Test12= 2.08D-14 5.56D-09 XBig12= 1.70D-09 8.23D-06.
      7 vectors produced by pass  7 Test12= 2.08D-14 5.56D-09 XBig12= 9.26D-12 6.39D-07.
      3 vectors produced by pass  8 Test12= 2.08D-14 5.56D-09 XBig12= 4.04D-14 3.82D-08.
 InvSVY:  IOpt=1 It=  1 EMax= 7.77D-16
 Solved reduced A of dimension   115 with    15 vectors.
 End of Minotr F.D. properties file   721 does not exist.
 End of Minotr F.D. properties file   722 does not exist.
 End of Minotr F.D. properties file   788 does not exist.
 MDV=   104857600.
 DoSCS=T DFT=T ScalE2(SS,OS)=  0.270000  0.270000
 Form MO integral derivatives with frozen-active canonical formalism.
 Discarding MO integrals.
 Reordered first order wavefunction length =     27990162
 In DefCFB: NBatch=  1 ICI= 29 ICA=129 LFMax= 29
            Large arrays: LIAPS=   432669096 LIARS=   186896619 words.
 Semi-Direct transformation.
 ModeAB=           2 MOrb=            29 LenV=     104026431
 LASXX=     49834180 LTotXX=    49834180 LenRXX=    49834180
 LTotAB=    50827401 MaxLAS=    77142552 LenRXY=    77142552
 NonZer=    99668360 LenScr=   150259200 LnRSAI=           0
 LnScr1=           0 LExtra=           0 Total=    277235932
 MaxDsk=          -1 SrtSym=           F ITran=            4
 JobTyp=0 Pass  1:  I=   1 to  29.
 SymMOI:  orbitals are not symmetric.
 DoSCS=T DFT=T ScalE2(SS,OS)=  0.270000  0.270000
 Spin components of T(2) and E(2):
     alpha-alpha T2 =       0.5857611247D-01 E2=     -0.4496319008D-01
     alpha-beta  T2 =       0.3006400568D+00 E2=     -0.2473652900D+00
     beta-beta   T2 =       0.5857611247D-01 E2=     -0.4496319008D-01
 E2(B2PLYP) =    -0.3372916701D+00 E(B2PLYP) =    -0.11579185989424D+04
          IDoAtm=11111
          Differentiating once with respect to electric field.
                with respect to dipole field.
          Differentiating once with respect to nuclear coordinates.
 Keep R1 ints in memory in canonical form, NReq=82938376.
          There are     1 degrees of freedom in the 1st order CPHF.  IDoFFX=0 NUNeed=     1.
 LinEq1:  Iter=  0 NonCon=     1 RMS=1.71D-03 Max=3.78D-02 NDo=     1
 AX will form     1 AO Fock derivatives at one time.
 LinEq1:  Iter=  1 NonCon=     1 RMS=7.55D-04 Max=1.63D-02 NDo=     1
 LinEq1:  Iter=  2 NonCon=     1 RMS=2.52D-04 Max=6.79D-03 NDo=     1
 LinEq1:  Iter=  3 NonCon=     1 RMS=7.90D-05 Max=1.49D-03 NDo=     1
 LinEq1:  Iter=  4 NonCon=     1 RMS=2.14D-05 Max=3.72D-04 NDo=     1
 LinEq1:  Iter=  5 NonCon=     1 RMS=1.02D-05 Max=2.21D-04 NDo=     1
 LinEq1:  Iter=  6 NonCon=     1 RMS=2.03D-06 Max=3.21D-05 NDo=     1
 LinEq1:  Iter=  7 NonCon=     1 RMS=5.15D-07 Max=1.04D-05 NDo=     1
 LinEq1:  Iter=  8 NonCon=     1 RMS=1.24D-07 Max=2.09D-06 NDo=     1
 LinEq1:  Iter=  9 NonCon=     1 RMS=4.12D-08 Max=1.13D-06 NDo=     1
 LinEq1:  Iter= 10 NonCon=     1 RMS=1.09D-08 Max=1.83D-07 NDo=     1
 LinEq1:  Iter= 11 NonCon=     1 RMS=1.82D-09 Max=3.22D-08 NDo=     1
 LinEq1:  Iter= 12 NonCon=     1 RMS=5.22D-10 Max=9.11D-09 NDo=     1
 LinEq1:  Iter= 13 NonCon=     1 RMS=2.54D-10 Max=3.12D-09 NDo=     1
 LinEq1:  Iter= 14 NonCon=     1 RMS=5.81D-11 Max=1.14D-09 NDo=     1
 LinEq1:  Iter= 15 NonCon=     0 RMS=9.65D-12 Max=1.32D-10 NDo=     1
 Linear equations converged to 1.000D-10 1.000D-09 after    15 iterations.
 End of Minotr F.D. properties file   721 does not exist.
 End of Minotr F.D. properties file   722 does not exist.
 End of Minotr F.D. properties file   788 does not exist.
 Symmetrizing basis deriv contribution to polar:
 IMax=3 JMax=2 DiffMx= 0.00D+00
 G2DrvN: will do     6 centers at a time, making    1 passes.
 Calling FoFCou, ICntrl=  3107 FMM=F I1Cent=   0 AccDes= 0.00D+00.
 End of G2Drv F.D. properties file   721 does not exist.
 End of G2Drv F.D. properties file   722 does not exist.
 End of G2Drv F.D. properties file   788 does not exist.
 DoSCS=T DFT=T ScalE2(SS,OS)=  0.270000  0.270000
 Would need an additional   181725422 words for in-memory AO integral storage.
 DD1Dir will call FoFJK  31 times, MxPair=        42
 NAB=   435 NAA=   406 NBB=     0 NumPrc=  4.
 FoFJK:  IHMeth= 1 ICntrl=     200 DoSepK=F KAlg= 0 I1Cent=           0 FoldK=F
 IRaf= 990000000 NMat=      42 IRICut=      52 DoRegI=T DoRafI=T ISym2E= 2 IDoP0=3 IntGTp=3.
 FoFCou: FMM=F IPFlag=           0 FMFlag=           0 FMFlg1=           0
         NFxFlg=           0 DoJE=F BraDBF=F KetDBF=F FulRan=T
         wScrn=  0.000000 ICntrl=       200 IOpCl=  0 I1Cent=           0 NGrid=           0
         NMat0=   42 NMatS0=      0 NMatT0=   21 NMatD0=   42 NMtDS0=    0 NMtDT0=    0
 Integrals replicated using symmetry in FoFCou.
 Raff kept on since  60.13% of shell-pairs survive, threshold=   0.20 IRatSp=60.
 Discarding MO integrals.

 **********************************************************************

            Population analysis using the SCF Density.

 **********************************************************************

 Orbital symmetries:
       Occupied  (A) (A) (A) (A) (A) (A) (A) (A) (A) (A) (A) (A)
                 (A) (A) (A) (A) (A) (A) (A) (A) (A) (A) (A) (A)
                 (A) (A) (A) (A) (A)
       Virtual   (A) (A) (A) (A) (A) (A) (A) (A) (A) (A) (A) (A)
                 (A) (A) (A) (A) (A) (A) (A) (A) (A) (A) (A) (A)
                 (A) (A) (A) (A) (A) (A) (A) (A) (A) (A) (A) (A)
                 (A) (A) (A) (A) (A) (A) (A) (A) (A) (A) (A) (A)
                 (A) (A) (A) (A) (A) (A) (A) (A) (A) (A) (A) (A)
                 (A) (A) (A) (A) (A) (A) (A) (A) (A) (A) (A) (A)
                 (A) (A) (A) (A) (A) (A) (A) (A) (A) (A) (A) (A)
                 (A) (A) (A) (A) (A) (A) (A) (A) (A) (A) (A) (A)
                 (A) (A) (A) (A) (A) (A) (A) (A) (A) (A) (A) (A)
                 (A) (A) (A) (A) (A) (A) (A) (A) (A) (A) (A) (A)
                 (A) (A) (A) (A) (A) (A) (A) (A) (A)
 The electronic state is 1-A.
 Alpha  occ. eigenvalues -- -102.97474-102.97454 -25.41996 -25.41979 -10.92988
 Alpha  occ. eigenvalues --   -9.96360  -9.96340  -7.60415  -7.60395  -7.59736
 Alpha  occ. eigenvalues --   -7.59729  -7.59716  -7.59709  -1.47956  -1.41489
 Alpha  occ. eigenvalues --   -1.04656  -0.98355  -0.79554  -0.69376  -0.66283
 Alpha  occ. eigenvalues --   -0.65849  -0.57514  -0.55225  -0.54554  -0.48088
 Alpha  occ. eigenvalues --   -0.44187  -0.42925  -0.41139  -0.39675
 Alpha virt. eigenvalues --    0.02725   0.08561   0.14504   0.18463   0.27489
 Alpha virt. eigenvalues --    0.30371   0.32625   0.34673   0.37309   0.38296
 Alpha virt. eigenvalues --    0.38822   0.40400   0.41705   0.41996   0.45397
 Alpha virt. eigenvalues --    0.47177   0.48469   0.51807   0.55695   0.57608
 Alpha virt. eigenvalues --    0.59735   0.65713   0.71546   0.74294   0.81661
 Alpha virt. eigenvalues --    0.87585   0.87672   0.94102   0.96064   0.99368
 Alpha virt. eigenvalues --    1.03996   1.06121   1.10832   1.13788   1.19553
 Alpha virt. eigenvalues --    1.19688   1.21142   1.65240   1.76569   1.82462
 Alpha virt. eigenvalues --    1.92561   1.95012   1.97184   1.98542   1.99465
 Alpha virt. eigenvalues --    2.00927   2.01278   2.03108   2.03305   2.04080
 Alpha virt. eigenvalues --    2.04982   2.07978   2.09119   2.10296   2.11269
 Alpha virt. eigenvalues --    2.11878   2.15147   2.18050   2.18819   2.19226
 Alpha virt. eigenvalues --    2.19252   2.25658   2.27930   2.29920   2.30150
 Alpha virt. eigenvalues --    2.32155   2.34217   2.35573   2.39935   2.40048
 Alpha virt. eigenvalues --    2.41029   2.41623   2.46401   2.61324   2.63726
 Alpha virt. eigenvalues --    2.67096   2.67893   2.97037   2.99494   3.01199
 Alpha virt. eigenvalues --    3.23344   3.25552   3.33605   3.34780   3.42667
 Alpha virt. eigenvalues --    3.54574   3.58274   3.64069   3.64283   3.64770
 Alpha virt. eigenvalues --    3.66679   3.69561   3.79314   4.05170   4.67278
 Alpha virt. eigenvalues --    4.95351   4.99264   5.03099   5.06824   5.32276
 Alpha virt. eigenvalues --    5.65046   6.13366   7.02464   7.02694   7.02727
 Alpha virt. eigenvalues --    7.03117   7.03740   7.05538   7.09500   7.11047
 Alpha virt. eigenvalues --    7.19236   7.34215   7.34235   7.40689   7.43029
 Alpha virt. eigenvalues --    7.63353   8.21736   8.48413   8.52794   8.57515
 Alpha virt. eigenvalues --    8.57988   8.89672   8.98024   9.04605   9.15682
 Alpha virt. eigenvalues --    9.26183   9.78381  11.45457  11.69614
          Condensed to atoms (all electrons):
               1          2          3          4          5
     1  C    4.027584   0.390765   0.356613   0.390859   0.356461
     2  F    0.390765   8.923777  -0.048394  -0.046207  -0.048369
     3  Cl   0.356613  -0.048394  16.887988  -0.048093  -0.080986
     4  F    0.390859  -0.046207  -0.048093   8.923228  -0.048388
     5  Cl   0.356461  -0.048369  -0.080986  -0.048388  16.888897
 Mulliken charges:
               1
     1  C    0.477718
     2  F   -0.171573
     3  Cl  -0.067128
     4  F   -0.171400
     5  Cl  -0.067616
 Sum of Mulliken charges =  -0.00000
 Mulliken charges with hydrogens summed into heavy atoms:
               1
     1  C    0.477718
     2  F   -0.171573
     3  Cl  -0.067128
     4  F   -0.171400
     5  Cl  -0.067616
 APT charges:
               1
     1  C    1.730840
     2  F   -0.560294
     3  Cl  -0.304953
     4  F   -0.560286
     5  Cl  -0.305308
 Sum of APT charges =  -0.00000
 APT charges with hydrogens summed into heavy atoms:
               1
     1  C    1.730840
     2  F   -0.560294
     3  Cl  -0.304953
     4  F   -0.560286
     5  Cl  -0.305308
 Electronic spatial extent (au):  <R**2>=            564.0889
 Charge=             -0.0000 electrons
 Dipole moment (field-independent basis, Debye):
    X=              0.0056    Y=             -0.6975    Z=             -0.0022  Tot=              0.6976
 Quadrupole moment (field-independent basis, Debye-Ang):
   XX=            -38.5478   YY=            -40.6233   ZZ=            -41.5072
   XY=             -0.0018   XZ=             -0.0013   YZ=             -0.0016
 Traceless Quadrupole moment (field-independent basis, Debye-Ang):
   XX=              1.6783   YY=             -0.3972   ZZ=             -1.2811
   XY=             -0.0018   XZ=             -0.0013   YZ=             -0.0016
 Octapole moment (field-independent basis, Debye-Ang**2):
  XXX=              0.0079  YYY=              9.4227  ZZZ=              0.0075  XYY=              0.0010
  XXY=             -0.8122  XXZ=              0.0062  XZZ=             -0.0006  YZZ=              2.6572
  YYZ=              0.0061  XYZ=             -0.0012
 Hexadecapole moment (field-independent basis, Debye-Ang**3):
 XXXX=           -333.8866 YYYY=           -180.9851 ZZZZ=           -106.8306 XXXY=             -0.0294
 XXXZ=              0.0109 YYYX=             -0.0147 YYYZ=             -0.0083 ZZZX=              0.0169
 ZZZY=             -0.0115 XXYY=            -81.2657 XXZZ=            -78.1022 YYZZ=            -49.2463
 XXYZ=             -0.0027 YYXZ=              0.0032 ZZXY=             -0.0078
 N-N= 3.016295930784D+02 E-N=-3.355565812945D+03  KE= 1.155010475787D+03
  Exact polarizability:      46.104       0.002      34.438      -0.001      -0.001      28.256
 Approx polarizability:      52.378      -0.000      43.281       0.002      -0.004      36.687
 Calling FoFJK, ICntrl=  10100127 FMM=F ISym2X=0 I1Cent= 0 IOpClX= 0 NMat=1 NMatS=1 NMatT=0.
 ***** Axes restored to original set *****
 -------------------------------------------------------------------
 Center     Atomic                   Forces (Hartrees/Bohr)
 Number     Number              X              Y              Z
 -------------------------------------------------------------------
      1        6          -0.008358955    0.014594865    0.012780923
      2        9           0.000919890   -0.001585149   -0.018960005
      3       17          -0.001852710    0.001278523    0.001292696
      4        9           0.009242401   -0.016413137    0.003558269
      5       17           0.000049375    0.002124899    0.001328117
 -------------------------------------------------------------------
 Cartesian Forces:  Max     0.018960005 RMS     0.008905313
 -----------------------------------------------------------------------------------------------
                       Internal Coordinate Forces (Hartree/Bohr or radian)
  Cent   Atom   N1       Length/X         N2         Alpha/Y        N3         Beta/Z          J
 -----------------------------------------------------------------------------------------------
      1  C 
      2  F        1  -0.018960(     1)
      3  Cl       1  -0.002179(     2)      2  -0.001988(     5)
      4  F        1  -0.019066(     3)      2   0.005066(     6)      3   0.000537(     8)     0
      5  Cl       1  -0.002155(     4)      2  -0.002144(     7)      3   0.003481(     9)     0
 -----------------------------------------------------------------------------------------------
 Internal  Forces:  Max     0.019066424 RMS     0.009303634

 GradGradGradGradGradGradGradGradGradGradGradGradGradGradGradGradGradGrad
 Berny optimization.
 Search for a local minimum.
 Step number   1 out of a maximum of   20
 All quantities printed in internal units (Hartrees-Bohrs-Radians)
 Second derivative matrix not updated -- analytic derivatives used.
 The second derivative matrix:
                          r2        r3        a3        r4        a4
           r2           0.33313
           r3           0.03618   0.21371
           a3           0.06580   0.00378   0.40274
           r4           0.04859   0.03600  -0.02860   0.33319
           a4           0.07959  -0.02865   0.10534   0.01740   0.47998
           d4          -0.00002  -0.05354   0.06038   0.00039  -0.00031
           r5           0.03617   0.02681  -0.03165   0.03616  -0.02880
           a5           0.06578  -0.03166   0.11609  -0.02870   0.10578
           d5          -0.00089   0.04850  -0.06783  -0.05578   0.07166
                          d4        r5        a5        d5
           d4           0.39645
           r5           0.05394   0.21346
           a5          -0.06063   0.00363   0.40278
           d5          -0.19881  -0.00540  -0.00718   0.36659
 ITU=  0
     Eigenvalues ---    0.11670   0.14908   0.20695   0.26987   0.29304
     Eigenvalues ---    0.36515   0.41393   0.63331   0.69401
 RFO step:  Lambda=-2.16885782D-03 EMin= 1.16696701D-01
 Linear search not attempted -- first point.
 Variable       Old X    -DE/DX   Delta X   Delta X   Delta X     New X
                                 (Linear)    (Quad)   (Total)
    r2        2.56606  -0.01896   0.00000  -0.05508  -0.05508   2.51098
    r3        3.33593  -0.00218   0.00000   0.01096   0.01096   3.34689
    a3        1.91306  -0.00199   0.00000  -0.00541  -0.00541   1.90765
    r4        2.56587  -0.01907   0.00000  -0.05472  -0.05472   2.51115
    a4        1.86070   0.00507   0.00000   0.02633   0.02633   1.88702
    d4        4.21113   0.00054   0.00000  -0.00234  -0.00234   4.20879
    r5        3.33669  -0.00215   0.00000   0.01027   0.01027   3.34695
    a5        1.91288  -0.00214   0.00000  -0.00528  -0.00528   1.90761
    d5        2.14204   0.00348   0.00000  -0.00774  -0.00774   2.13431
         Item               Value     Threshold  Converged?
 Maximum Force            0.019066     0.000002     NO 
 RMS     Force            0.009304     0.000001     NO 
 Maximum Displacement     0.055081     0.000006     NO 
 RMS     Displacement     0.028026     0.000004     NO 
 Predicted change in Energy=-1.092094D-03
 GradGradGradGradGradGradGradGradGradGradGradGradGradGradGradGradGradGrad

 ---------------------------------------------------------------------------------------------------
                            Z-MATRIX (ANGSTROMS AND DEGREES)
   CD    Cent   Atom    N1       Length/X        N2       Alpha/Y        N3        Beta/Z          J
 ---------------------------------------------------------------------------------------------------
      1      1  C 
      2      2  F        1   1.328753(     1)
      3      3  Cl       1   1.771099(     2)      2  109.300(     5)
      4      4  F        1   1.328844(     3)      2  108.118(     6)      3  241.146(     8)      0
      5      5  Cl       1   1.771132(     4)      2  109.298(     7)      3  122.287(     9)      0
 ---------------------------------------------------------------------------------------------------
                         Z-Matrix orientation:                         
 ---------------------------------------------------------------------
 Center     Atomic      Atomic             Coordinates (Angstroms)
 Number     Number       Type             X           Y           Z
 ---------------------------------------------------------------------
      1          6           0        0.000000    0.000000    0.000000
      2          9           0        0.000000    0.000000    1.328753
      3         17           0        1.671563    0.000000   -0.585380
      4          9           0       -0.609478    1.106161   -0.413245
      5         17           0       -0.892907   -1.413162   -0.585319
 ---------------------------------------------------------------------
                    Distance matrix (angstroms):
                    1          2          3          4          5
     1  C    0.000000
     2  F    1.328753   0.000000
     3  Cl   1.771099   2.541264   0.000000
     4  F    1.328844   2.151653   2.540939   0.000000
     5  Cl   1.771132   2.541255   2.928060   2.541049   0.000000
 Stoichiometry    CCl2F2
 Framework group  C1[X(CCl2F2)]
 Deg. of freedom     9
 Full point group                 C1      NOp   1
 Largest Abelian subgroup         C1      NOp   1
 Largest concise Abelian subgroup C1      NOp   1
                         Standard orientation:                         
 ---------------------------------------------------------------------
 Center     Atomic      Atomic             Coordinates (Angstroms)
 Number     Number       Type             X           Y           Z
 ---------------------------------------------------------------------
      1          6           0        0.000013    0.342239    0.000093
      2          9           0       -0.000014    1.122623    1.075539
      3         17           0        1.463997   -0.654527    0.000164
      4          9           0        0.000130    1.121730   -1.076114
      5         17           0       -1.464063   -0.654450    0.000108
 ---------------------------------------------------------------------
 Rotational constants (GHZ):           4.1026986           2.6066460           2.2058565
 Standard basis: CC-pVTZ (5D, 7F)
 There are   183 symmetry adapted cartesian basis functions of A   symmetry.
 There are   158 symmetry adapted basis functions of A   symmetry.
   158 basis functions,   344 primitive gaussians,   183 cartesian basis functions
    29 alpha electrons       29 beta electrons
       nuclear repulsion energy       303.5581327892 Hartrees.
 NAtoms=    5 NActive=    5 NUniq=    5 SFac= 1.00D+00 NAtFMM=   60 NAOKFM=F Big=F
 Integral buffers will be    131072 words long.
 Regular integral format.
 Two-electron integral symmetry is turned on.
 One-electron integrals computed using PRISM.
 NBasis=   158 RedAO= T EigKep=  2.46D-03  NBF=   158
 NBsUse=   158 1.00D-06 EigRej= -1.00D+00 NBFU=   158
 Initial guess from the checkpoint file:  "checkpoint.chk"
 B after Tr=     0.000000   -0.000000   -0.000000
         Rot=    1.000000    0.000683    0.000271    0.000286 Ang=   0.09 deg.
 ExpMin= 1.21D-01 ExpMax= 4.56D+05 ExpMxC= 1.44D+03 IAcc=3 IRadAn=         5 AccDes= 0.00D+00
 Harris functional with IExCor=  419 and IRadAn=       5 diagonalized for initial guess.
 HarFok:  IExCor=  419 AccDes= 0.00D+00 IRadAn=         5 IDoV= 1 UseB2=F ITyADJ=14
 ICtDFT=  3500011 ScaDFX=  1.000000  1.000000  1.000000  1.000000
 FoFCou: FMM=F IPFlag=           0 FMFlag=      100000 FMFlg1=           0
         NFxFlg=           0 DoJE=T BraDBF=F KetDBF=T FulRan=T
         wScrn=  0.000000 ICntrl=       500 IOpCl=  0 I1Cent=   200000004 NGrid=           0
         NMat0=    1 NMatS0=      1 NMatT0=    0 NMatD0=    1 NMtDS0=    0 NMtDT0=    0
 Petite list used in FoFCou.
 Keep R1 ints in memory in canonical form, NReq=82934847.
 Requested convergence on RMS density matrix=1.00D-08 within 128 cycles.
 Requested convergence on MAX density matrix=1.00D-06.
 Requested convergence on             energy=1.00D-06.
 No special actions if energy rises.
 Integral accuracy reduced to 1.0D-05 until final iterations.
 Initial convergence to 1.0D-05 achieved.  Increase integral accuracy.
 SCF Done:  E(RB2PLYP) =  -1157.58364058     A.U. after   10 cycles
            NFock= 10  Conv=0.79D-08     -V/T= 2.0021
 DoSCS=T DFT=T ScalE2(SS,OS)=  0.270000  0.270000
 ExpMin= 1.21D-01 ExpMax= 4.56D+05 ExpMxC= 1.44D+03 IAcc=3 IRadAn=         5 AccDes= 0.00D+00
 HarFok:  IExCor=  205 AccDes= 0.00D+00 IRadAn=         5 IDoV=-2 UseB2=F ITyADJ=14
 ICtDFT= 12500011 ScaDFX=  1.000000  1.000000  1.000000  1.000000
 Range of M.O.s used for correlation:    14   158
 NBasis=   158 NAE=    29 NBE=    29 NFC=    13 NFV=     0
 NROrb=    145 NOA=    16 NOB=    16 NVA=   129 NVB=   129
 DoSCS=T DFT=T ScalE2(SS,OS)=  0.270000  0.270000
 Disk-based method using ON**2 memory for 16 occupieds at a time.
 Permanent disk used for amplitudes=    17347017 words.
 Estimated scratch disk usage=   180018832 words.
 Actual    scratch disk usage=   174560400 words.
 GetIJB would need an additional    28626517 words of memory to use all   4 processors.
 JobTyp=1 Pass  1:  I=  14 to  29 NPSUse=  3 ParTrn=F ParDer=T DoDerP=T.
 Spin components of T(2) and E(2):
     alpha-alpha T2 =       0.5791785657D-01 E2=     -0.4482506322D-01
     alpha-beta  T2 =       0.2969873302D+00 E2=     -0.2463304683D+00
     beta-beta   T2 =       0.5791785657D-01 E2=     -0.4482506322D-01
 E2(B2PLYP) =    -0.3359805947D+00 E(B2PLYP) =    -0.11579196211769D+04
 G2DrvN: will do     6 centers at a time, making    1 passes.
 Calling FoFCou, ICntrl=  3107 FMM=F I1Cent=   0 AccDes= 0.00D+00.
 End of G2Drv F.D. properties file   721 does not exist.
 End of G2Drv F.D. properties file   722 does not exist.
 End of G2Drv F.D. properties file   788 does not exist.
          IDoAtm=11111
          Differentiating once with respect to electric field.
                with respect to dipole field.
          Differentiating once with respect to nuclear coordinates.
 Keep R1 ints in memory in canonical form, NReq=82925802.
          There are    18 degrees of freedom in the 1st order CPHF.  IDoFFX=6 NUNeed=    18.
     15 vectors produced by pass  0 Test12= 2.08D-14 5.56D-09 XBig12= 2.04D+01 2.60D+00.
 AX will form    15 AO Fock derivatives at one time.
     15 vectors produced by pass  1 Test12= 2.08D-14 5.56D-09 XBig12= 1.66D+00 4.43D-01.
     15 vectors produced by pass  2 Test12= 2.08D-14 5.56D-09 XBig12= 7.40D-02 8.46D-02.
     15 vectors produced by pass  3 Test12= 2.08D-14 5.56D-09 XBig12= 4.55D-03 2.25D-02.
     15 vectors produced by pass  4 Test12= 2.08D-14 5.56D-09 XBig12= 5.56D-05 2.01D-03.
     15 vectors produced by pass  5 Test12= 2.08D-14 5.56D-09 XBig12= 3.28D-07 1.62D-04.
     15 vectors produced by pass  6 Test12= 2.08D-14 5.56D-09 XBig12= 1.30D-09 7.10D-06.
      7 vectors produced by pass  7 Test12= 2.08D-14 5.56D-09 XBig12= 7.40D-12 5.13D-07.
      3 vectors produced by pass  8 Test12= 2.08D-14 5.56D-09 XBig12= 3.49D-14 3.39D-08.
 InvSVY:  IOpt=1 It=  1 EMax= 1.11D-15
 Solved reduced A of dimension   115 with    15 vectors.
 End of Minotr F.D. properties file   721 does not exist.
 End of Minotr F.D. properties file   722 does not exist.
 End of Minotr F.D. properties file   788 does not exist.
 MDV=   104857600.
 DoSCS=T DFT=T ScalE2(SS,OS)=  0.270000  0.270000
 Form MO integral derivatives with frozen-active canonical formalism.
 Discarding MO integrals.
 Reordered first order wavefunction length =     27990162
 In DefCFB: NBatch=  1 ICI= 29 ICA=129 LFMax= 29
            Large arrays: LIAPS=   432669096 LIARS=   186896619 words.
 Semi-Direct transformation.
 ModeAB=           2 MOrb=            29 LenV=     104026319
 LASXX=     49834180 LTotXX=    49834180 LenRXX=    49834180
 LTotAB=    50827401 MaxLAS=    77142552 LenRXY=    77142552
 NonZer=    99668360 LenScr=   150259200 LnRSAI=           0
 LnScr1=           0 LExtra=           0 Total=    277235932
 MaxDsk=          -1 SrtSym=           F ITran=            4
 JobTyp=0 Pass  1:  I=   1 to  29.
 SymMOI:  orbitals are not symmetric.
 DoSCS=T DFT=T ScalE2(SS,OS)=  0.270000  0.270000
 Spin components of T(2) and E(2):
     alpha-alpha T2 =       0.5791785657D-01 E2=     -0.4482506322D-01
     alpha-beta  T2 =       0.2969873302D+00 E2=     -0.2463304683D+00
     beta-beta   T2 =       0.5791785657D-01 E2=     -0.4482506322D-01
 E2(B2PLYP) =    -0.3359805947D+00 E(B2PLYP) =    -0.11579196211769D+04
          IDoAtm=11111
          Differentiating once with respect to electric field.
                with respect to dipole field.
          Differentiating once with respect to nuclear coordinates.
 Keep R1 ints in memory in canonical form, NReq=82938376.
          There are     1 degrees of freedom in the 1st order CPHF.  IDoFFX=0 NUNeed=     1.
 LinEq1:  Iter=  0 NonCon=     1 RMS=1.66D-03 Max=3.88D-02 NDo=     1
 AX will form     1 AO Fock derivatives at one time.
 LinEq1:  Iter=  1 NonCon=     1 RMS=7.14D-04 Max=1.56D-02 NDo=     1
 LinEq1:  Iter=  2 NonCon=     1 RMS=2.37D-04 Max=6.23D-03 NDo=     1
 LinEq1:  Iter=  3 NonCon=     1 RMS=7.67D-05 Max=1.60D-03 NDo=     1
 LinEq1:  Iter=  4 NonCon=     1 RMS=2.25D-05 Max=3.74D-04 NDo=     1
 LinEq1:  Iter=  5 NonCon=     1 RMS=9.85D-06 Max=2.19D-04 NDo=     1
 LinEq1:  Iter=  6 NonCon=     1 RMS=1.97D-06 Max=3.52D-05 NDo=     1
 LinEq1:  Iter=  7 NonCon=     1 RMS=5.33D-07 Max=1.23D-05 NDo=     1
 LinEq1:  Iter=  8 NonCon=     1 RMS=1.29D-07 Max=1.96D-06 NDo=     1
 LinEq1:  Iter=  9 NonCon=     1 RMS=4.00D-08 Max=9.93D-07 NDo=     1
 LinEq1:  Iter= 10 NonCon=     1 RMS=1.05D-08 Max=1.79D-07 NDo=     1
 LinEq1:  Iter= 11 NonCon=     1 RMS=1.96D-09 Max=3.39D-08 NDo=     1
 LinEq1:  Iter= 12 NonCon=     1 RMS=8.85D-10 Max=1.50D-08 NDo=     1
 LinEq1:  Iter= 13 NonCon=     1 RMS=2.97D-10 Max=4.53D-09 NDo=     1
 LinEq1:  Iter= 14 NonCon=     0 RMS=5.79D-11 Max=8.88D-10 NDo=     1
 Linear equations converged to 1.000D-10 1.000D-09 after    14 iterations.
 End of Minotr F.D. properties file   721 does not exist.
 End of Minotr F.D. properties file   722 does not exist.
 End of Minotr F.D. properties file   788 does not exist.
 Symmetrizing basis deriv contribution to polar:
 IMax=3 JMax=2 DiffMx= 0.00D+00
 G2DrvN: will do     6 centers at a time, making    1 passes.
 Calling FoFCou, ICntrl=  3107 FMM=F I1Cent=   0 AccDes= 0.00D+00.
 End of G2Drv F.D. properties file   721 does not exist.
 End of G2Drv F.D. properties file   722 does not exist.
 End of G2Drv F.D. properties file   788 does not exist.
 DoSCS=T DFT=T ScalE2(SS,OS)=  0.270000  0.270000
 Would need an additional   181725422 words for in-memory AO integral storage.
 DD1Dir will call FoFJK  31 times, MxPair=        42
 NAB=   435 NAA=   406 NBB=     0 NumPrc=  4.
 FoFJK:  IHMeth= 1 ICntrl=     200 DoSepK=F KAlg= 0 I1Cent=           0 FoldK=F
 IRaf= 990000000 NMat=      42 IRICut=      52 DoRegI=T DoRafI=T ISym2E= 2 IDoP0=3 IntGTp=3.
 FoFCou: FMM=F IPFlag=           0 FMFlag=           0 FMFlg1=           0
         NFxFlg=           0 DoJE=F BraDBF=F KetDBF=F FulRan=T
         wScrn=  0.000000 ICntrl=       200 IOpCl=  0 I1Cent=           0 NGrid=           0
         NMat0=   42 NMatS0=      0 NMatT0=   21 NMatD0=   42 NMtDS0=    0 NMtDT0=    0
 Integrals replicated using symmetry in FoFCou.
 Raff kept on since  60.13% of shell-pairs survive, threshold=   0.20 IRatSp=60.
 Discarding MO integrals.
 Calling FoFJK, ICntrl=  10100127 FMM=F ISym2X=0 I1Cent= 0 IOpClX= 0 NMat=1 NMatS=1 NMatT=0.
 ***** Axes restored to original set *****
 -------------------------------------------------------------------
 Center     Atomic                   Forces (Hartrees/Bohr)
 Number     Number              X              Y              Z
 -------------------------------------------------------------------
      1        6           0.000715901   -0.001301239   -0.001189660
      2        9           0.000019066   -0.000032522    0.001846027
      3       17           0.000200572   -0.000026631   -0.000045675
      4        9          -0.000852845    0.001526636   -0.000565289
      5       17          -0.000082694   -0.000166245   -0.000045403
 -------------------------------------------------------------------
 Cartesian Forces:  Max     0.001846027 RMS     0.000836155
 -----------------------------------------------------------------------------------------------
                       Internal Coordinate Forces (Hartree/Bohr or radian)
  Cent   Atom   N1       Length/X         N2         Alpha/Y        N3         Beta/Z          J
 -----------------------------------------------------------------------------------------------
      1  C 
      2  F        1   0.001846(     1)
      3  Cl       1   0.000204(     2)      2  -0.000078(     5)
      4  F        1   0.001838(     3)      2  -0.000016(     6)      3  -0.000024(     8)     0
      5  Cl       1   0.000189(     4)      2  -0.000061(     7)      3  -0.000060(     9)     0
 -----------------------------------------------------------------------------------------------
 Internal  Forces:  Max     0.001846027 RMS     0.000874132

 GradGradGradGradGradGradGradGradGradGradGradGradGradGradGradGradGradGrad
 Berny optimization.
 Search for a local minimum.
 Step number   2 out of a maximum of   20
 All quantities printed in internal units (Hartrees-Bohrs-Radians)
 Second derivative matrix not updated -- analytic derivatives used.
 DE= -1.02D-03 DEPred=-1.09D-03 R= 9.36D-01
 TightC=F SS=  1.41D+00  RLast= 8.41D-02 DXNew= 5.0454D-01 2.5223D-01
 Trust test= 9.36D-01 RLast= 8.41D-02 DXMaxT set to 3.00D-01
 The second derivative matrix:
                          r2        r3        a3        r4        a4
           r2           0.40416
           r3           0.03865   0.21294
           a3           0.06926   0.00605   0.41817
           r4           0.05319   0.03868  -0.03170   0.40398
           a4           0.08354  -0.03109   0.11293   0.01725   0.49909
           d4           0.00000  -0.05801   0.06679  -0.00002   0.00002
           r5           0.03865   0.02635  -0.03068   0.03867  -0.03107
           a5           0.06927  -0.03068   0.11172  -0.03169   0.11289
           d5          -0.00106   0.04829  -0.06695  -0.05819   0.07393
                          d4        r5        a5        d5
           d4           0.41121
           r5           0.05799   0.21290
           a5          -0.06677   0.00606   0.41818
           d5          -0.20555  -0.00966  -0.00008   0.37261
 ITU=  1  0
     Eigenvalues ---    0.11889   0.15196   0.21922   0.29570   0.32601
     Eigenvalues ---    0.38045   0.47673   0.65570   0.72859
 RFO step:  Lambda=-9.12865557D-07 EMin= 1.18886892D-01
 Quintic linear search produced a step of -0.07666.
 Variable       Old X    -DE/DX   Delta X   Delta X   Delta X     New X
                                 (Linear)    (Quad)   (Total)
    r2        2.51098   0.00185   0.00422   0.00028   0.00450   2.51548
    r3        3.34689   0.00020  -0.00084   0.00021  -0.00063   3.34627
    a3        1.90765  -0.00008   0.00041  -0.00071  -0.00030   1.90735
    r4        2.51115   0.00184   0.00419   0.00010   0.00429   2.51544
    a4        1.88702  -0.00002  -0.00202   0.00110  -0.00091   1.88611
    d4        4.20879  -0.00002   0.00018   0.00019   0.00037   4.20916
    r5        3.34695   0.00019  -0.00079   0.00010  -0.00069   3.34626
    a5        1.90761  -0.00006   0.00040  -0.00066  -0.00025   1.90735
    d5        2.13431  -0.00006   0.00059   0.00027   0.00087   2.13517
         Item               Value     Threshold  Converged?
 Maximum Force            0.001846     0.000002     NO 
 RMS     Force            0.000874     0.000001     NO 
 Maximum Displacement     0.004503     0.000006     NO 
 RMS     Displacement     0.002146     0.000004     NO 
 Predicted change in Energy=-7.863592D-06
 GradGradGradGradGradGradGradGradGradGradGradGradGradGradGradGradGradGrad

 ---------------------------------------------------------------------------------------------------
                            Z-MATRIX (ANGSTROMS AND DEGREES)
   CD    Cent   Atom    N1       Length/X        N2       Alpha/Y        N3        Beta/Z          J
 ---------------------------------------------------------------------------------------------------
      1      1  C 
      2      2  F        1   1.331135(     1)
      3      3  Cl       1   1.770768(     2)      2  109.283(     5)
      4      4  F        1   1.331115(     3)      2  108.066(     6)      3  241.167(     8)      0
      5      5  Cl       1   1.770766(     4)      2  109.283(     7)      3  122.336(     9)      0
 ---------------------------------------------------------------------------------------------------
                         Z-Matrix orientation:                         
 ---------------------------------------------------------------------
 Center     Atomic      Atomic             Coordinates (Angstroms)
 Number     Number       Type             X           Y           Z
 ---------------------------------------------------------------------
      1          6           0        0.000000    0.000000    0.000000
      2          9           0        0.000000    0.000000    1.331135
      3         17           0        1.671423    0.000000   -0.584777
      4          9           0       -0.610289    1.108610   -0.412794
      5         17           0       -0.894025   -1.412222   -0.584774
 ---------------------------------------------------------------------
                    Distance matrix (angstroms):
                    1          2          3          4          5
     1  C    0.000000
     2  F    1.331135   0.000000
     3  Cl   1.770768   2.542514   0.000000
     4  F    1.331115   2.154706   2.542598   0.000000
     5  Cl   1.770766   2.542511   2.928463   2.542574   0.000000
 Stoichiometry    CCl2F2
 Framework group  C1[X(CCl2F2)]
 Deg. of freedom     9
 Full point group                 C1      NOp   1
 Largest Abelian subgroup         C1      NOp   1
 Largest concise Abelian subgroup C1      NOp   1
                         Standard orientation:                         
 ---------------------------------------------------------------------
 Center     Atomic      Atomic             Coordinates (Angstroms)
 Number     Number       Type             X           Y           Z
 ---------------------------------------------------------------------
      1          6           0        0.000000    0.341126   -0.000023
      2          9           0       -0.000003    1.122798    1.077432
      3         17           0        1.464240   -0.654677   -0.000043
      4          9           0       -0.000029    1.123045   -1.077274
      5         17           0       -1.464223   -0.654697   -0.000033
 ---------------------------------------------------------------------
 Rotational constants (GHZ):           4.0961338           2.6044139           2.2047617
 Standard basis: CC-pVTZ (5D, 7F)
 There are   183 symmetry adapted cartesian basis functions of A   symmetry.
 There are   158 symmetry adapted basis functions of A   symmetry.
   158 basis functions,   344 primitive gaussians,   183 cartesian basis functions
    29 alpha electrons       29 beta electrons
       nuclear repulsion energy       303.3882578123 Hartrees.
 NAtoms=    5 NActive=    5 NUniq=    5 SFac= 1.00D+00 NAtFMM=   60 NAOKFM=F Big=F
 Integral buffers will be    131072 words long.
 Regular integral format.
 Two-electron integral symmetry is turned on.
 One-electron integrals computed using PRISM.
 NBasis=   158 RedAO= T EigKep=  2.46D-03  NBF=   158
 NBsUse=   158 1.00D-06 EigRej= -1.00D+00 NBFU=   158
 Initial guess from the checkpoint file:  "checkpoint.chk"
 B after Tr=     0.000000    0.000000   -0.000000
         Rot=    1.000000   -0.000188   -0.000018   -0.000022 Ang=  -0.02 deg.
 Keep R1 ints in memory in canonical form, NReq=82934847.
 Requested convergence on RMS density matrix=1.00D-08 within 128 cycles.
 Requested convergence on MAX density matrix=1.00D-06.
 Requested convergence on             energy=1.00D-06.
 No special actions if energy rises.
 SCF Done:  E(RB2PLYP) =  -1157.58354307     A.U. after    7 cycles
            NFock=  7  Conv=0.97D-08     -V/T= 2.0021
 DoSCS=T DFT=T ScalE2(SS,OS)=  0.270000  0.270000
 ExpMin= 1.21D-01 ExpMax= 4.56D+05 ExpMxC= 1.44D+03 IAcc=3 IRadAn=         5 AccDes= 0.00D+00
 HarFok:  IExCor=  205 AccDes= 0.00D+00 IRadAn=         5 IDoV=-2 UseB2=F ITyADJ=14
 ICtDFT= 12500011 ScaDFX=  1.000000  1.000000  1.000000  1.000000
 Range of M.O.s used for correlation:    14   158
 NBasis=   158 NAE=    29 NBE=    29 NFC=    13 NFV=     0
 NROrb=    145 NOA=    16 NOB=    16 NVA=   129 NVB=   129
 DoSCS=T DFT=T ScalE2(SS,OS)=  0.270000  0.270000
 Disk-based method using ON**2 memory for 16 occupieds at a time.
 Permanent disk used for amplitudes=    17347017 words.
 Estimated scratch disk usage=   180018832 words.
 Actual    scratch disk usage=   174560400 words.
 GetIJB would need an additional    28626517 words of memory to use all   4 processors.
 JobTyp=1 Pass  1:  I=  14 to  29 NPSUse=  3 ParTrn=F ParDer=T DoDerP=T.
 Spin components of T(2) and E(2):
     alpha-alpha T2 =       0.5797053660D-01 E2=     -0.4483587451D-01
     alpha-beta  T2 =       0.2972827871D+00 E2=     -0.2464142614D+00
     beta-beta   T2 =       0.5797053660D-01 E2=     -0.4483587451D-01
 E2(B2PLYP) =    -0.3360860104D+00 E(B2PLYP) =    -0.11579196290831D+04
 G2DrvN: will do     6 centers at a time, making    1 passes.
 Calling FoFCou, ICntrl=  3107 FMM=F I1Cent=   0 AccDes= 0.00D+00.
 End of G2Drv F.D. properties file   721 does not exist.
 End of G2Drv F.D. properties file   722 does not exist.
 End of G2Drv F.D. properties file   788 does not exist.
          IDoAtm=11111
          Differentiating once with respect to electric field.
                with respect to dipole field.
          Differentiating once with respect to nuclear coordinates.
 Keep R1 ints in memory in canonical form, NReq=82925802.
          There are    18 degrees of freedom in the 1st order CPHF.  IDoFFX=6 NUNeed=    18.
     15 vectors produced by pass  0 Test12= 2.08D-14 5.56D-09 XBig12= 2.04D+01 2.60D+00.
 AX will form    15 AO Fock derivatives at one time.
     15 vectors produced by pass  1 Test12= 2.08D-14 5.56D-09 XBig12= 1.66D+00 4.42D-01.
     15 vectors produced by pass  2 Test12= 2.08D-14 5.56D-09 XBig12= 7.40D-02 8.47D-02.
     15 vectors produced by pass  3 Test12= 2.08D-14 5.56D-09 XBig12= 4.57D-03 2.26D-02.
     15 vectors produced by pass  4 Test12= 2.08D-14 5.56D-09 XBig12= 5.68D-05 2.03D-03.
     15 vectors produced by pass  5 Test12= 2.08D-14 5.56D-09 XBig12= 3.34D-07 1.63D-04.
     15 vectors produced by pass  6 Test12= 2.08D-14 5.56D-09 XBig12= 1.33D-09 7.19D-06.
      7 vectors produced by pass  7 Test12= 2.08D-14 5.56D-09 XBig12= 7.55D-12 5.23D-07.
      3 vectors produced by pass  8 Test12= 2.08D-14 5.56D-09 XBig12= 3.54D-14 3.43D-08.
 InvSVY:  IOpt=1 It=  1 EMax= 1.11D-15
 Solved reduced A of dimension   115 with    15 vectors.
 End of Minotr F.D. properties file   721 does not exist.
 End of Minotr F.D. properties file   722 does not exist.
 End of Minotr F.D. properties file   788 does not exist.
 MDV=   104857600.
 DoSCS=T DFT=T ScalE2(SS,OS)=  0.270000  0.270000
 Form MO integral derivatives with frozen-active canonical formalism.
 Discarding MO integrals.
 Reordered first order wavefunction length =     27990162
 In DefCFB: NBatch=  1 ICI= 29 ICA=129 LFMax= 29
            Large arrays: LIAPS=   432669096 LIARS=   186896619 words.
 Semi-Direct transformation.
 ModeAB=           2 MOrb=            29 LenV=     104026347
 LASXX=     49834180 LTotXX=    49834180 LenRXX=    49834180
 LTotAB=    50827401 MaxLAS=    77142552 LenRXY=    77142552
 NonZer=    99668360 LenScr=   150259200 LnRSAI=           0
 LnScr1=           0 LExtra=           0 Total=    277235932
 MaxDsk=          -1 SrtSym=           F ITran=            4
 JobTyp=0 Pass  1:  I=   1 to  29.
 SymMOI:  orbitals are not symmetric.
 DoSCS=T DFT=T ScalE2(SS,OS)=  0.270000  0.270000
 Spin components of T(2) and E(2):
     alpha-alpha T2 =       0.5797053660D-01 E2=     -0.4483587451D-01
     alpha-beta  T2 =       0.2972827871D+00 E2=     -0.2464142614D+00
     beta-beta   T2 =       0.5797053660D-01 E2=     -0.4483587451D-01
 E2(B2PLYP) =    -0.3360860104D+00 E(B2PLYP) =    -0.11579196290831D+04
          IDoAtm=11111
          Differentiating once with respect to electric field.
                with respect to dipole field.
          Differentiating once with respect to nuclear coordinates.
 Keep R1 ints in memory in canonical form, NReq=82938376.
          There are     1 degrees of freedom in the 1st order CPHF.  IDoFFX=0 NUNeed=     1.
 LinEq1:  Iter=  0 NonCon=     1 RMS=1.66D-03 Max=3.88D-02 NDo=     1
 AX will form     1 AO Fock derivatives at one time.
 LinEq1:  Iter=  1 NonCon=     1 RMS=7.17D-04 Max=1.56D-02 NDo=     1
 LinEq1:  Iter=  2 NonCon=     1 RMS=2.39D-04 Max=6.27D-03 NDo=     1
 LinEq1:  Iter=  3 NonCon=     1 RMS=7.69D-05 Max=1.59D-03 NDo=     1
 LinEq1:  Iter=  4 NonCon=     1 RMS=2.24D-05 Max=3.74D-04 NDo=     1
 LinEq1:  Iter=  5 NonCon=     1 RMS=9.88D-06 Max=2.19D-04 NDo=     1
 LinEq1:  Iter=  6 NonCon=     1 RMS=1.97D-06 Max=3.51D-05 NDo=     1
 LinEq1:  Iter=  7 NonCon=     1 RMS=5.32D-07 Max=1.23D-05 NDo=     1
 LinEq1:  Iter=  8 NonCon=     1 RMS=1.29D-07 Max=1.97D-06 NDo=     1
 LinEq1:  Iter=  9 NonCon=     1 RMS=4.01D-08 Max=9.97D-07 NDo=     1
 LinEq1:  Iter= 10 NonCon=     1 RMS=1.05D-08 Max=1.80D-07 NDo=     1
 LinEq1:  Iter= 11 NonCon=     1 RMS=1.80D-09 Max=3.42D-08 NDo=     1
 LinEq1:  Iter= 12 NonCon=     1 RMS=3.31D-10 Max=4.34D-09 NDo=     1
 LinEq1:  Iter= 13 NonCon=     1 RMS=1.84D-10 Max=2.80D-09 NDo=     1
 LinEq1:  Iter= 14 NonCon=     0 RMS=5.63D-11 Max=8.67D-10 NDo=     1
 Linear equations converged to 1.000D-10 1.000D-09 after    14 iterations.
 End of Minotr F.D. properties file   721 does not exist.
 End of Minotr F.D. properties file   722 does not exist.
 End of Minotr F.D. properties file   788 does not exist.
 Symmetrizing basis deriv contribution to polar:
 IMax=3 JMax=2 DiffMx= 0.00D+00
 G2DrvN: will do     6 centers at a time, making    1 passes.
 Calling FoFCou, ICntrl=  3107 FMM=F I1Cent=   0 AccDes= 0.00D+00.
 End of G2Drv F.D. properties file   721 does not exist.
 End of G2Drv F.D. properties file   722 does not exist.
 End of G2Drv F.D. properties file   788 does not exist.
 DoSCS=T DFT=T ScalE2(SS,OS)=  0.270000  0.270000
 Would need an additional   181725422 words for in-memory AO integral storage.
 DD1Dir will call FoFJK  31 times, MxPair=        42
 NAB=   435 NAA=   406 NBB=     0 NumPrc=  4.
 FoFJK:  IHMeth= 1 ICntrl=     200 DoSepK=F KAlg= 0 I1Cent=           0 FoldK=F
 IRaf= 990000000 NMat=      42 IRICut=      52 DoRegI=T DoRafI=T ISym2E= 2 IDoP0=3 IntGTp=3.
 FoFCou: FMM=F IPFlag=           0 FMFlag=           0 FMFlg1=           0
         NFxFlg=           0 DoJE=F BraDBF=F KetDBF=F FulRan=T
         wScrn=  0.000000 ICntrl=       200 IOpCl=  0 I1Cent=           0 NGrid=           0
         NMat0=   42 NMatS0=      0 NMatT0=   21 NMatD0=   42 NMtDS0=    0 NMtDT0=    0
 Integrals replicated using symmetry in FoFCou.
 Raff kept on since  60.13% of shell-pairs survive, threshold=   0.20 IRatSp=60.
 Discarding MO integrals.
 Calling FoFJK, ICntrl=  10100127 FMM=F ISym2X=0 I1Cent= 0 IOpClX= 0 NMat=1 NMatS=1 NMatT=0.
 ***** Axes restored to original set *****
 -------------------------------------------------------------------
 Center     Atomic                   Forces (Hartrees/Bohr)
 Number     Number              X              Y              Z
 -------------------------------------------------------------------
      1        6           0.000029874   -0.000059020   -0.000020734
      2        9          -0.000015014    0.000028856   -0.000020867
      3       17          -0.000037460    0.000008505    0.000007795
      4        9           0.000009351   -0.000011248    0.000026419
      5       17           0.000013249    0.000032907    0.000007387
 -------------------------------------------------------------------
 Cartesian Forces:  Max     0.000059020 RMS     0.000025898
 -----------------------------------------------------------------------------------------------
                       Internal Coordinate Forces (Hartree/Bohr or radian)
  Cent   Atom   N1       Length/X         N2         Alpha/Y        N3         Beta/Z          J
 -----------------------------------------------------------------------------------------------
      1  C 
      2  F        1  -0.000021(     1)
      3  Cl       1  -0.000038(     2)      2   0.000017(     5)
      4  F        1  -0.000022(     3)      2  -0.000052(     6)      3   0.000007(     8)     0
      5  Cl       1  -0.000035(     4)      2   0.000015(     7)      3   0.000020(     9)     0
 -----------------------------------------------------------------------------------------------
 Internal  Forces:  Max     0.000051975 RMS     0.000028423

 GradGradGradGradGradGradGradGradGradGradGradGradGradGradGradGradGradGrad
 Berny optimization.
 Search for a local minimum.
 Step number   3 out of a maximum of   20
 All quantities printed in internal units (Hartrees-Bohrs-Radians)
 Second derivative matrix not updated -- analytic derivatives used.
 DE= -7.91D-06 DEPred=-7.86D-06 R= 1.01D+00
 TightC=F SS=  1.41D+00  RLast= 6.44D-03 DXNew= 5.0454D-01 1.9312D-02
 Trust test= 1.01D+00 RLast= 6.44D-03 DXMaxT set to 3.00D-01
 The second derivative matrix:
                          r2        r3        a3        r4        a4
           r2           0.39784
           r3           0.03849   0.21287
           a3           0.06911   0.00605   0.41718
           r4           0.05265   0.03848  -0.03153   0.39788
           a4           0.08283  -0.03089   0.11245   0.01684   0.49642
           d4          -0.00000  -0.05771   0.06647   0.00000  -0.00000
           r5           0.03849   0.02632  -0.03063   0.03849  -0.03089
           a5           0.06911  -0.03063   0.11163  -0.03153   0.11245
           d5          -0.00105   0.04819  -0.06681  -0.05804   0.07369
                          d4        r5        a5        d5
           d4           0.41028
           r5           0.05771   0.21288
           a5          -0.06647   0.00605   0.41718
           d5          -0.20512  -0.00947  -0.00024   0.37192
 ITU=  1  1  0
     Eigenvalues ---    0.11875   0.15165   0.21843   0.29436   0.32263
     Eigenvalues ---    0.37852   0.47086   0.65405   0.72521
 RFO step:  Lambda=-3.00203407D-08 EMin= 1.18750354D-01
 Quintic linear search produced a step of -0.00509.
 Variable       Old X    -DE/DX   Delta X   Delta X   Delta X     New X
                                 (Linear)    (Quad)   (Total)
    r2        2.51548  -0.00002  -0.00002   0.00002  -0.00001   2.51547
    r3        3.34627  -0.00004   0.00000  -0.00019  -0.00019   3.34608
    a3        1.90735   0.00002   0.00000   0.00007   0.00008   1.90743
    r4        2.51544  -0.00002  -0.00002   0.00005   0.00003   2.51547
    a4        1.88611  -0.00005   0.00000  -0.00020  -0.00019   1.88591
    d4        4.20916   0.00001  -0.00000   0.00011   0.00011   4.20928
    r5        3.34626  -0.00004   0.00000  -0.00019  -0.00019   3.34608
    a5        1.90735   0.00002   0.00000   0.00008   0.00008   1.90743
    d5        2.13517   0.00002  -0.00000   0.00020   0.00019   2.13537
         Item               Value     Threshold  Converged?
 Maximum Force            0.000052     0.000002     NO 
 RMS     Force            0.000028     0.000001     NO 
 Maximum Displacement     0.000193     0.000006     NO 
 RMS     Displacement     0.000138     0.000004     NO 
 Predicted change in Energy=-1.522816D-08
 GradGradGradGradGradGradGradGradGradGradGradGradGradGradGradGradGradGrad

 ---------------------------------------------------------------------------------------------------
                            Z-MATRIX (ANGSTROMS AND DEGREES)
   CD    Cent   Atom    N1       Length/X        N2       Alpha/Y        N3        Beta/Z          J
 ---------------------------------------------------------------------------------------------------
      1      1  C 
      2      2  F        1   1.331132(     1)
      3      3  Cl       1   1.770667(     2)      2  109.288(     5)
      4      4  F        1   1.331132(     3)      2  108.055(     6)      3  241.174(     8)      0
      5      5  Cl       1   1.770667(     4)      2  109.288(     7)      3  122.347(     9)      0
 ---------------------------------------------------------------------------------------------------
                         Z-Matrix orientation:                         
 ---------------------------------------------------------------------
 Center     Atomic      Atomic             Coordinates (Angstroms)
 Number     Number       Type             X           Y           Z
 ---------------------------------------------------------------------
      1          6           0        0.000000    0.000000    0.000000
      2          9           0        0.000000    0.000000    1.331132
      3         17           0        1.671283    0.000000   -0.584871
      4          9           0       -0.610210    1.108762   -0.412557
      5         17           0       -0.894223   -1.411932   -0.584871
 ---------------------------------------------------------------------
                    Distance matrix (angstroms):
                    1          2          3          4          5
     1  C    0.000000
     2  F    1.331132   0.000000
     3  Cl   1.770667   2.542490   0.000000
     4  F    1.331132   2.154567   2.542490   0.000000
     5  Cl   1.770667   2.542490   2.928373   2.542490   0.000000
 Stoichiometry    CCl2F2
 Framework group  C1[X(CCl2F2)]
 Deg. of freedom     9
 Full point group                 C1      NOp   1
 Largest Abelian subgroup         C1      NOp   1
 Largest concise Abelian subgroup C1      NOp   1
                         Standard orientation:                         
 ---------------------------------------------------------------------
 Center     Atomic      Atomic             Coordinates (Angstroms)
 Number     Number       Type             X           Y           Z
 ---------------------------------------------------------------------
      1          6           0        0.000000    0.341026   -0.000000
      2          9           0       -0.000000    1.122930    1.077283
      3         17           0        1.464187   -0.654673    0.000000
      4          9           0        0.000000    1.122929   -1.077284
      5         17           0       -1.464187   -0.654673    0.000000
 ---------------------------------------------------------------------
 Rotational constants (GHZ):           4.0963684           2.6046135           2.2048629
 Standard basis: CC-pVTZ (5D, 7F)
 There are   183 symmetry adapted cartesian basis functions of A   symmetry.
 There are   158 symmetry adapted basis functions of A   symmetry.
   158 basis functions,   344 primitive gaussians,   183 cartesian basis functions
    29 alpha electrons       29 beta electrons
       nuclear repulsion energy       303.3973434032 Hartrees.
 NAtoms=    5 NActive=    5 NUniq=    5 SFac= 1.00D+00 NAtFMM=   60 NAOKFM=F Big=F
 Integral buffers will be    131072 words long.
 Regular integral format.
 Two-electron integral symmetry is turned on.
 One-electron integrals computed using PRISM.
 NBasis=   158 RedAO= T EigKep=  2.46D-03  NBF=   158
 NBsUse=   158 1.00D-06 EigRej= -1.00D+00 NBFU=   158
 Initial guess from the checkpoint file:  "checkpoint.chk"
 B after Tr=    -0.000000    0.000000    0.000000
         Rot=    1.000000    0.000041    0.000003    0.000005 Ang=   0.00 deg.
 Keep R1 ints in memory in canonical form, NReq=82934847.
 Requested convergence on RMS density matrix=1.00D-08 within 128 cycles.
 Requested convergence on MAX density matrix=1.00D-06.
 Requested convergence on             energy=1.00D-06.
 No special actions if energy rises.
 SCF Done:  E(RB2PLYP) =  -1157.58354502     A.U. after    5 cycles
            NFock=  5  Conv=0.65D-08     -V/T= 2.0021
 DoSCS=T DFT=T ScalE2(SS,OS)=  0.270000  0.270000
 ExpMin= 1.21D-01 ExpMax= 4.56D+05 ExpMxC= 1.44D+03 IAcc=3 IRadAn=         5 AccDes= 0.00D+00
 HarFok:  IExCor=  205 AccDes= 0.00D+00 IRadAn=         5 IDoV=-2 UseB2=F ITyADJ=14
 ICtDFT= 12500011 ScaDFX=  1.000000  1.000000  1.000000  1.000000
 Range of M.O.s used for correlation:    14   158
 NBasis=   158 NAE=    29 NBE=    29 NFC=    13 NFV=     0
 NROrb=    145 NOA=    16 NOB=    16 NVA=   129 NVB=   129
 DoSCS=T DFT=T ScalE2(SS,OS)=  0.270000  0.270000
 Disk-based method using ON**2 memory for 16 occupieds at a time.
 Permanent disk used for amplitudes=    17347017 words.
 Estimated scratch disk usage=   180018832 words.
 Actual    scratch disk usage=   174560400 words.
 GetIJB would need an additional    28626517 words of memory to use all   4 processors.
 JobTyp=1 Pass  1:  I=  14 to  29 NPSUse=  3 ParTrn=F ParDer=T DoDerP=T.
 Spin components of T(2) and E(2):
     alpha-alpha T2 =       0.5796923808D-01 E2=     -0.4483579685D-01
     alpha-beta  T2 =       0.2972722345D+00 E2=     -0.2464124856D+00
     beta-beta   T2 =       0.5796923808D-01 E2=     -0.4483579685D-01
 E2(B2PLYP) =    -0.3360840793D+00 E(B2PLYP) =    -0.11579196290956D+04
 G2DrvN: will do     6 centers at a time, making    1 passes.
 Calling FoFCou, ICntrl=  3107 FMM=F I1Cent=   0 AccDes= 0.00D+00.
 End of G2Drv F.D. properties file   721 does not exist.
 End of G2Drv F.D. properties file   722 does not exist.
 End of G2Drv F.D. properties file   788 does not exist.
          IDoAtm=11111
          Differentiating once with respect to electric field.
                with respect to dipole field.
          Differentiating once with respect to nuclear coordinates.
 Keep R1 ints in memory in canonical form, NReq=82925802.
          There are    18 degrees of freedom in the 1st order CPHF.  IDoFFX=6 NUNeed=    18.
     15 vectors produced by pass  0 Test12= 2.08D-14 5.56D-09 XBig12= 2.04D+01 2.60D+00.
 AX will form    15 AO Fock derivatives at one time.
     15 vectors produced by pass  1 Test12= 2.08D-14 5.56D-09 XBig12= 1.66D+00 4.42D-01.
     15 vectors produced by pass  2 Test12= 2.08D-14 5.56D-09 XBig12= 7.40D-02 8.46D-02.
     15 vectors produced by pass  3 Test12= 2.08D-14 5.56D-09 XBig12= 4.57D-03 2.26D-02.
     15 vectors produced by pass  4 Test12= 2.08D-14 5.56D-09 XBig12= 5.68D-05 2.03D-03.
     15 vectors produced by pass  5 Test12= 2.08D-14 5.56D-09 XBig12= 3.34D-07 1.63D-04.
     15 vectors produced by pass  6 Test12= 2.08D-14 5.56D-09 XBig12= 1.33D-09 7.18D-06.
      7 vectors produced by pass  7 Test12= 2.08D-14 5.56D-09 XBig12= 7.54D-12 5.23D-07.
      3 vectors produced by pass  8 Test12= 2.08D-14 5.56D-09 XBig12= 3.53D-14 3.42D-08.
 InvSVY:  IOpt=1 It=  1 EMax= 8.88D-16
 Solved reduced A of dimension   115 with    15 vectors.
 End of Minotr F.D. properties file   721 does not exist.
 End of Minotr F.D. properties file   722 does not exist.
 End of Minotr F.D. properties file   788 does not exist.
 MDV=   104857600.
 DoSCS=T DFT=T ScalE2(SS,OS)=  0.270000  0.270000
 Form MO integral derivatives with frozen-active canonical formalism.
 Discarding MO integrals.
 Reordered first order wavefunction length =     27990162
 In DefCFB: NBatch=  1 ICI= 29 ICA=129 LFMax= 29
            Large arrays: LIAPS=   432669096 LIARS=   186896619 words.
 Semi-Direct transformation.
 ModeAB=           2 MOrb=            29 LenV=     104026347
 LASXX=     49834180 LTotXX=    49834180 LenRXX=    49834180
 LTotAB=    50827401 MaxLAS=    77142552 LenRXY=    77142552
 NonZer=    99668360 LenScr=   150259200 LnRSAI=           0
 LnScr1=           0 LExtra=           0 Total=    277235932
 MaxDsk=          -1 SrtSym=           F ITran=            4
 JobTyp=0 Pass  1:  I=   1 to  29.
 SymMOI:  orbitals are not symmetric.
 DoSCS=T DFT=T ScalE2(SS,OS)=  0.270000  0.270000
 Spin components of T(2) and E(2):
     alpha-alpha T2 =       0.5796923808D-01 E2=     -0.4483579685D-01
     alpha-beta  T2 =       0.2972722345D+00 E2=     -0.2464124856D+00
     beta-beta   T2 =       0.5796923808D-01 E2=     -0.4483579685D-01
 E2(B2PLYP) =    -0.3360840793D+00 E(B2PLYP) =    -0.11579196290956D+04
          IDoAtm=11111
          Differentiating once with respect to electric field.
                with respect to dipole field.
          Differentiating once with respect to nuclear coordinates.
 Keep R1 ints in memory in canonical form, NReq=82938376.
          There are     1 degrees of freedom in the 1st order CPHF.  IDoFFX=0 NUNeed=     1.
 LinEq1:  Iter=  0 NonCon=     1 RMS=1.66D-03 Max=3.87D-02 NDo=     1
 AX will form     1 AO Fock derivatives at one time.
 LinEq1:  Iter=  1 NonCon=     1 RMS=7.17D-04 Max=1.56D-02 NDo=     1
 LinEq1:  Iter=  2 NonCon=     1 RMS=2.38D-04 Max=6.27D-03 NDo=     1
 LinEq1:  Iter=  3 NonCon=     1 RMS=7.69D-05 Max=1.59D-03 NDo=     1
 LinEq1:  Iter=  4 NonCon=     1 RMS=2.24D-05 Max=3.73D-04 NDo=     1
 LinEq1:  Iter=  5 NonCon=     1 RMS=9.88D-06 Max=2.19D-04 NDo=     1
 LinEq1:  Iter=  6 NonCon=     1 RMS=1.97D-06 Max=3.51D-05 NDo=     1
 LinEq1:  Iter=  7 NonCon=     1 RMS=5.32D-07 Max=1.23D-05 NDo=     1
 LinEq1:  Iter=  8 NonCon=     1 RMS=1.28D-07 Max=1.97D-06 NDo=     1
 LinEq1:  Iter=  9 NonCon=     1 RMS=4.01D-08 Max=9.96D-07 NDo=     1
 LinEq1:  Iter= 10 NonCon=     1 RMS=1.05D-08 Max=1.80D-07 NDo=     1
 LinEq1:  Iter= 11 NonCon=     1 RMS=1.79D-09 Max=3.42D-08 NDo=     1
 LinEq1:  Iter= 12 NonCon=     1 RMS=2.71D-10 Max=4.09D-09 NDo=     1
 LinEq1:  Iter= 13 NonCon=     0 RMS=5.34D-11 Max=8.91D-10 NDo=     1
 Linear equations converged to 1.000D-10 1.000D-09 after    13 iterations.
 End of Minotr F.D. properties file   721 does not exist.
 End of Minotr F.D. properties file   722 does not exist.
 End of Minotr F.D. properties file   788 does not exist.
 Symmetrizing basis deriv contribution to polar:
 IMax=3 JMax=2 DiffMx= 0.00D+00
 G2DrvN: will do     6 centers at a time, making    1 passes.
 Calling FoFCou, ICntrl=  3107 FMM=F I1Cent=   0 AccDes= 0.00D+00.
 End of G2Drv F.D. properties file   721 does not exist.
 End of G2Drv F.D. properties file   722 does not exist.
 End of G2Drv F.D. properties file   788 does not exist.
 DoSCS=T DFT=T ScalE2(SS,OS)=  0.270000  0.270000
 Would need an additional   181725422 words for in-memory AO integral storage.
 DD1Dir will call FoFJK  31 times, MxPair=        42
 NAB=   435 NAA=   406 NBB=     0 NumPrc=  4.
 FoFJK:  IHMeth= 1 ICntrl=     200 DoSepK=F KAlg= 0 I1Cent=           0 FoldK=F
 IRaf= 990000000 NMat=      42 IRICut=      52 DoRegI=T DoRafI=T ISym2E= 2 IDoP0=3 IntGTp=3.
 FoFCou: FMM=F IPFlag=           0 FMFlag=           0 FMFlg1=           0
         NFxFlg=           0 DoJE=F BraDBF=F KetDBF=F FulRan=T
         wScrn=  0.000000 ICntrl=       200 IOpCl=  0 I1Cent=           0 NGrid=           0
         NMat0=   42 NMatS0=      0 NMatT0=   21 NMatD0=   42 NMtDS0=    0 NMtDT0=    0
 Integrals replicated using symmetry in FoFCou.
 Raff kept on since  60.13% of shell-pairs survive, threshold=   0.20 IRatSp=60.
 Discarding MO integrals.
 Calling FoFJK, ICntrl=  10100127 FMM=F ISym2X=0 I1Cent= 0 IOpClX= 0 NMat=1 NMatS=1 NMatT=0.
 ***** Axes restored to original set *****
 -------------------------------------------------------------------
 Center     Atomic                   Forces (Hartrees/Bohr)
 Number     Number              X              Y              Z
 -------------------------------------------------------------------
      1        6           0.000000056   -0.000000120    0.000000085
      2        9           0.000000011    0.000000001   -0.000000110
      3       17           0.000000013   -0.000000010    0.000000037
      4        9          -0.000000078    0.000000140   -0.000000038
      5       17          -0.000000002   -0.000000011    0.000000027
 -------------------------------------------------------------------
 Cartesian Forces:  Max     0.000000140 RMS     0.000000067
 -----------------------------------------------------------------------------------------------
                       Internal Coordinate Forces (Hartree/Bohr or radian)
  Cent   Atom   N1       Length/X         N2         Alpha/Y        N3         Beta/Z          J
 -----------------------------------------------------------------------------------------------
      1  C 
      2  F        1  -0.000000(     1)
      3  Cl       1   0.000000(     2)      2  -0.000000(     5)
      4  F        1   0.000000(     3)      2  -0.000000(     6)      3  -0.000000(     8)     0
      5  Cl       1   0.000000(     4)      2  -0.000000(     7)      3  -0.000000(     9)     0
 -----------------------------------------------------------------------------------------------
 Internal  Forces:  Max     0.000000164 RMS     0.000000086

 GradGradGradGradGradGradGradGradGradGradGradGradGradGradGradGradGradGrad
 Berny optimization.
 Search for a local minimum.
 Step number   4 out of a maximum of   20
 All quantities printed in internal units (Hartrees-Bohrs-Radians)
 Second derivative matrix not updated -- analytic derivatives used.
 DE= -1.25D-08 DEPred=-1.52D-08 R= 8.24D-01
 Trust test= 8.24D-01 RLast= 4.14D-04 DXMaxT set to 3.00D-01
 The second derivative matrix:
                          r2        r3        a3        r4        a4
           r2           0.39787
           r3           0.03849   0.21298
           a3           0.06911   0.00603   0.41719
           r4           0.05268   0.03849  -0.03152   0.39788
           a4           0.08289  -0.03090   0.11245   0.01689   0.49660
           d4           0.00000  -0.05772   0.06645   0.00000   0.00000
           r5           0.03849   0.02633  -0.03065   0.03849  -0.03090
           a5           0.06911  -0.03065   0.11167  -0.03152   0.11245
           d5          -0.00105   0.04819  -0.06682  -0.05806   0.07372
                          d4        r5        a5        d5
           d4           0.41039
           r5           0.05772   0.21298
           a5          -0.06645   0.00603   0.41719
           d5          -0.20516  -0.00949  -0.00027   0.37195
 ITU=  0  1  1  0
     Eigenvalues ---    0.11879   0.15171   0.21848   0.29440   0.32264
     Eigenvalues ---    0.37861   0.47092   0.65416   0.72533
 RFO step:  Lambda= 0.00000000D+00 EMin= 1.18789234D-01
 Quintic linear search produced a step of -0.00027.
 Variable       Old X    -DE/DX   Delta X   Delta X   Delta X     New X
                                 (Linear)    (Quad)   (Total)
    r2        2.51547  -0.00000   0.00000  -0.00000  -0.00000   2.51547
    r3        3.34608   0.00000   0.00000  -0.00000  -0.00000   3.34608
    a3        1.90743  -0.00000  -0.00000  -0.00000  -0.00000   1.90743
    r4        2.51547   0.00000  -0.00000   0.00000   0.00000   2.51548
    a4        1.88591  -0.00000   0.00000  -0.00000   0.00000   1.88591
    d4        4.20928  -0.00000  -0.00000   0.00000   0.00000   4.20928
    r5        3.34608   0.00000   0.00000  -0.00000  -0.00000   3.34608
    a5        1.90743  -0.00000  -0.00000  -0.00000  -0.00000   1.90743
    d5        2.13537  -0.00000  -0.00000   0.00000  -0.00000   2.13537
         Item               Value     Threshold  Converged?
 Maximum Force            0.000000     0.000002     YES
 RMS     Force            0.000000     0.000001     YES
 Maximum Displacement     0.000000     0.000006     YES
 RMS     Displacement     0.000000     0.000004     YES
 Predicted change in Energy=-6.919434D-14
 Optimization completed.
    -- Stationary point found.
                       ----------------------------
                       !   Optimized Parameters   !
                       ! (Angstroms and Degrees)  !
 ----------------------                            ----------------------
 !      Name          Value   Derivative information (Atomic Units)     !
 ------------------------------------------------------------------------
 !       r2          1.3311   -DE/DX =    0.0                           !
 !       r3          1.7707   -DE/DX =    0.0                           !
 !       a3        109.2877   -DE/DX =    0.0                           !
 !       r4          1.3311   -DE/DX =    0.0                           !
 !       a4        108.055    -DE/DX =    0.0                           !
 !       d4        241.1737   -DE/DX =    0.0                           !
 !       r5          1.7707   -DE/DX =    0.0                           !
 !       a5        109.2877   -DE/DX =    0.0                           !
 !       d5        122.3474   -DE/DX =    0.0                           !
[...]
 Traceless Quadrupole moment (field-independent basis, Debye-Ang):
   XX=              1.3802   YY=             -0.2481   ZZ=             -1.1321
   XY=             -0.0000   XZ=              0.0000   YZ=             -0.0000
 Octapole moment (field-independent basis, Debye-Ang**2):
  XXX=              0.0000  YYY=              9.8697  ZZZ=             -0.0000  XYY=              0.0000
  XXY=             -0.5399  XXZ=             -0.0000  XZZ=             -0.0000  YZZ=              2.8855
  YYZ=             -0.0000  XYZ=              0.0000
 Hexadecapole moment (field-independent basis, Debye-Ang**3):
 XXXX=           -337.4781 YYYY=           -176.8727 ZZZZ=           -104.8761 XXXY=             -0.0000
 XXXZ=             -0.0000 YYYX=             -0.0000 YYYZ=              0.0000 ZZZX=             -0.0000
 ZZZY=              0.0000 XXYY=            -81.3667 XXZZ=            -78.3556 YYZZ=            -48.1579
 XXYZ=              0.0000 YYXZ=             -0.0000 ZZXY=             -0.0000
 N-N= 3.033973434032D+02 E-N=-3.359148376574D+03  KE= 1.155124154251D+03
  Exact polarizability:      46.254       0.000      34.006       0.000      -0.000      27.961
 Approx polarizability:      52.472      -0.000      42.828      -0.000      -0.000      36.328
 Calling FoFJK, ICntrl=  10100127 FMM=F ISym2X=0 I1Cent= 0 IOpClX= 0 NMat=1 NMatS=1 NMatT=0.
 Full mass-weighted force constant matrix:
 Low frequencies ---   -0.0030   -0.0027   -0.0021    1.5625    4.1834    5.3270
 Low frequencies ---  260.2371  321.3205  434.6747
 Diagonal vibrational polarizability:
       13.6781525       7.4630743       4.2632645
 Harmonic frequencies (cm**-1), IR intensities (KM/Mole), Raman scattering
 activities (A**4/AMU), depolarization ratios for plane and unpolarized
 incident light, reduced masses (AMU), force constants (mDyne/A),
 and normal coordinates:
                      1                      2                      3
                      A                      A                      A
 Frequencies --    260.2371               321.3205               434.6747
 Red. masses --     27.3847                21.1987                25.7059
 Frc consts  --      1.0927                 1.2895                 2.8616
 IR Inten    --      0.0422                 0.0000                 0.2533
  Atom  AN      X      Y      Z        X      Y      Z        X      Y      Z
     1   6     0.00  -0.30   0.00     0.00   0.00  -0.00    -0.01   0.00  -0.00
     2   9     0.00  -0.41   0.08     0.66   0.00   0.00     0.54  -0.00  -0.00
     3  17     0.45   0.27  -0.00    -0.00   0.00   0.26    -0.29   0.35   0.00
     4   9    -0.00  -0.41  -0.08    -0.66   0.00  -0.00     0.54   0.00  -0.00
     5  17    -0.45   0.27  -0.00    -0.00  -0.00  -0.26    -0.29  -0.35   0.00
                      4                      5                      6
                      A                      A                      A
 Frequencies --    436.7888               453.8970               669.1320
 Red. masses --     18.5875                25.6740                18.0917
 Frc consts  --      2.0894                 3.1164                 4.7726
 IR Inten    --      0.3219                 0.4348                13.1351
  Atom  AN      X      Y      Z        X      Y      Z        X      Y      Z
     1   6    -0.00   0.00   0.51     0.00   0.05  -0.00     0.00   0.53  -0.00
     2   9     0.00   0.52   0.23     0.00   0.43  -0.33    -0.00   0.08   0.57
     3  17    -0.00   0.00  -0.21     0.39  -0.24   0.00     0.12  -0.13   0.00
     4   9     0.00  -0.52   0.23    -0.00   0.43   0.33     0.00   0.08  -0.57
     5  17    -0.00  -0.00  -0.21    -0.39  -0.24   0.00    -0.12  -0.13   0.00
                      7                      8                      9
                      A                      A                      A
 Frequencies --    893.8508              1111.6171              1178.0992
 Red. masses --     12.7057                13.6297                13.3810
 Frc consts  --      5.9811                 9.9231                10.9422
 IR Inten    --    405.0207               303.0563               217.5318
  Atom  AN      X      Y      Z        X      Y      Z        X      Y      Z
     1   6     0.97   0.00   0.00    -0.00   0.88   0.00    -0.00  -0.00   0.90
     2   9    -0.13  -0.00  -0.00     0.00  -0.25  -0.23     0.00  -0.17  -0.26
     3  17    -0.10   0.03  -0.00     0.01  -0.02  -0.00     0.00   0.00  -0.01
     4   9    -0.13  -0.00   0.00     0.00  -0.25   0.23     0.00   0.17  -0.26
     5  17    -0.10  -0.03   0.00    -0.01  -0.02   0.00     0.00   0.00  -0.01

 -------------------
 - Thermochemistry -
 -------------------
 Temperature   298.150 Kelvin.  Pressure   1.00000 Atm.
 Atom     1 has atomic number  6 and mass  12.00000
 Atom     2 has atomic number  9 and mass  18.99840
 Atom     3 has atomic number 17 and mass  34.96885
 Atom     4 has atomic number  9 and mass  18.99840
 Atom     5 has atomic number 17 and mass  34.96885
 Molecular mass:   119.93451 amu.
 Principal axes and moments of inertia in atomic units:
                           1         2         3
     Eigenvalues --   440.57102 692.90173 818.52763
           X            1.00000   0.00000   0.00000
           Y           -0.00000   1.00000  -0.00000
           Z           -0.00000   0.00000   1.00000
 This molecule is an asymmetric top.
 Rotational symmetry number  1.
 Warning -- assumption of classical behavior for rotation
           may cause significant error
 Rotational temperatures (Kelvin)      0.19659     0.12500     0.10582
 Rotational constants (GHZ):           4.09637     2.60461     2.20486
 Zero-point vibrational energy      34450.2 (Joules/Mol)
                                    8.23379 (Kcal/Mol)
 Warning -- explicit consideration of   5 degrees of freedom as
           vibrations may cause significant error
 Vibrational temperatures:    374.42   462.31   625.40   628.44   653.06
          (Kelvin)            962.73  1286.05  1599.37  1695.02
 
 Zero-point correction=                           0.013121 (Hartree/Particle)
 Thermal correction to Energy=                    0.017856
 Thermal correction to Enthalpy=                  0.018801
 Thermal correction to Gibbs Free Energy=        -0.016025
 Sum of electronic and zero-point Energies=          -1157.906508
 Sum of electronic and thermal Energies=             -1157.901773
 Sum of electronic and thermal Enthalpies=           -1157.900829
 Sum of electronic and thermal Free Energies=        -1157.935654
 
                     E (Thermal)             CV                S
                      KCal/Mol        Cal/Mol-Kelvin    Cal/Mol-Kelvin
 Total                   11.205             15.364             73.296
 Electronic               0.000              0.000              0.000
 Translational            0.889              2.981             40.260
 Rotational               0.889              2.981             27.016
 Vibrational              9.428              9.403              6.021
 Vibration     1          0.668              1.745              1.660
 Vibration     2          0.707              1.633              1.303
 Vibration     3          0.795              1.395              0.844
 Vibration     4          0.797              1.390              0.837
 Vibration     5          0.812              1.352              0.784
                       Q            Log10(Q)             Ln(Q)
 Total Bot       0.234902D+08          7.370886         16.972093
 Total V=0       0.254855D+14         13.406294         30.869132
 Vib (Bot)       0.254279D-05         -5.594690        -12.882250
 Vib (Bot)    1  0.746276D+00         -0.127100         -0.292659
 Vib (Bot)    2  0.584568D+00         -0.233165         -0.536882
 Vib (Bot)    3  0.399382D+00         -0.398612         -0.917837
 Vib (Bot)    4  0.396786D+00         -0.401443         -0.924357
 Vib (Bot)    5  0.376613D+00         -0.424105         -0.976537
 Vib (V=0)       0.275878D+01          0.440718          1.014790
 Vib (V=0)    1  0.139829D+01          0.145598          0.335251
 Vib (V=0)    2  0.126923D+01          0.103541          0.238413
 Vib (V=0)    3  0.113993D+01          0.056877          0.130964
 Vib (V=0)    4  0.113831D+01          0.056260          0.129545
 Vib (V=0)    5  0.112597D+01          0.051526          0.118644
 Electronic      0.100000D+01          0.000000          0.000000
 Translational   0.516262D+08          7.712870         17.759540
 Rotational      0.178939D+06          5.252706         12.094803
 ***** Axes restored to original set *****
 -------------------------------------------------------------------
 Center     Atomic                   Forces (Hartrees/Bohr)
 Number     Number              X              Y              Z
 -------------------------------------------------------------------
      1        6          -0.000000064    0.000000090   -0.000000147
      2        9           0.000000021   -0.000000015   -0.000000004
      3       17           0.000000018   -0.000000007    0.000000053
      4        9           0.000000029   -0.000000052    0.000000055
      5       17          -0.000000004   -0.000000016    0.000000044
 -------------------------------------------------------------------
 Cartesian Forces:  Max     0.000000147 RMS     0.000000056
 -----------------------------------------------------------------------------------------------
                       Internal Coordinate Forces (Hartree/Bohr or radian)
  Cent   Atom   N1       Length/X         N2         Alpha/Y        N3         Beta/Z          J
 -----------------------------------------------------------------------------------------------
      1  C 
      2  F        1  -0.000000(     1)
      3  Cl       1  -0.000000(     2)      2  -0.000000(     5)
      4  F        1  -0.000000(     3)      2  -0.000000(     6)      3   0.000000(     8)     0
      5  Cl       1   0.000000(     4)      2  -0.000000(     7)      3  -0.000000(     9)     0
 -----------------------------------------------------------------------------------------------
 Internal  Forces:  Max     0.000000187 RMS     0.000000089

 GradGradGradGradGradGradGradGradGradGradGradGradGradGradGradGradGradGrad
 Berny optimization.
 Search for a local minimum.
 Step number   1 out of a maximum of    2
 All quantities printed in internal units (Hartrees-Bohrs-Radians)
 Second derivative matrix not updated -- analytic derivatives used.
 The second derivative matrix:
                          r2        r3        a3        r4        a4
           r2           0.39788
           r3           0.03849   0.21298
           a3           0.06911   0.00603   0.41719
           r4           0.05268   0.03849  -0.03152   0.39788
           a4           0.08289  -0.03090   0.11245   0.01689   0.49660
           d4           0.00000  -0.05772   0.06645   0.00000   0.00000
           r5           0.03849   0.02633  -0.03065   0.03849  -0.03090
           a5           0.06911  -0.03065   0.11167  -0.03152   0.11245
           d5          -0.00105   0.04819  -0.06682  -0.05806   0.07372
                          d4        r5        a5        d5
           d4           0.41039
           r5           0.05772   0.21298
           a5          -0.06645   0.00603   0.41719
           d5          -0.20516  -0.00949  -0.00027   0.37195
 ITU=  0
     Eigenvalues ---    0.11879   0.15171   0.21848   0.29440   0.32264
     Eigenvalues ---    0.37861   0.47092   0.65416   0.72533
 Angle between quadratic step and forces=  90.00 degrees.
 Linear search not attempted -- first point.
 Variable       Old X    -DE/DX   Delta X   Delta X   Delta X     New X
                                 (Linear)    (Quad)   (Total)
    r2        2.51547  -0.00000   0.00000   0.00000   0.00000   2.51548
    r3        3.34608  -0.00000   0.00000   0.00000   0.00000   3.34608
    a3        1.90743  -0.00000   0.00000  -0.00000  -0.00000   1.90743
    r4        2.51547  -0.00000   0.00000  -0.00000  -0.00000   2.51547
    a4        1.88591  -0.00000   0.00000   0.00000   0.00000   1.88591
    d4        4.20928   0.00000   0.00000  -0.00000  -0.00000   4.20928
    r5        3.34608   0.00000   0.00000  -0.00000  -0.00000   3.34608
    a5        1.90743  -0.00000   0.00000  -0.00000  -0.00000   1.90743
    d5        2.13537  -0.00000   0.00000  -0.00000  -0.00000   2.13537
         Item               Value     Threshold  Converged?
 Maximum Force            0.000000     0.000002     YES
 RMS     Force            0.000000     0.000001     YES
 Maximum Displacement     0.000000     0.000006     YES
 RMS     Displacement     0.000000     0.000004     YES
 Predicted change in Energy=-7.771549D-14
 Optimization completed.
    -- Stationary point found.
                       ----------------------------
                       !   Optimized Parameters   !
                       ! (Angstroms and Degrees)  !
 ----------------------                            ----------------------
 !      Name          Value   Derivative information (Atomic Units)     !
 ------------------------------------------------------------------------
 !       r2          1.3311   -DE/DX =    0.0                           !
 !       r3          1.7707   -DE/DX =    0.0                           !
 !       a3        109.2877   -DE/DX =    0.0                           !
 !       r4          1.3311   -DE/DX =    0.0                           !
 !       a4        108.055    -DE/DX =    0.0                           !
 !       d4        241.1737   -DE/DX =    0.0                           !
 !       r5          1.7707   -DE/DX =    0.0                           !
 !       a5        109.2877   -DE/DX =    0.0                           !
 !       d5        122.3474   -DE/DX =    0.0                           !
 ------------------------------------------------------------------------
 GradGradGradGradGradGradGradGradGradGradGradGradGradGradGradGradGradGrad


 ----------------------------------------------------------------------

 Electric dipole moment (input orientation):
 (Debye = 10**-18 statcoulomb cm , SI units = C m)
                  (au)            (Debye)         (10**-30 SI)
   Tot        0.142210D+00      0.361461D+00      0.120571D+01
   x          0.554913D-01      0.141045D+00      0.470475D+00
   y         -0.100829D+00     -0.256281D+00     -0.854860D+00
   z         -0.835342D-01     -0.212323D+00     -0.708233D+00

 Dipole polarizability, Alpha (input orientation).
 (esu units = cm**3 , SI units = C**2 m**2 J**-1)
 Alpha(0;0):
               (au)            (10**-24 esu)      (10**-40 SI)
   iso        0.360737D+02      0.534558D+01      0.594776D+01
   aniso      0.161431D+02      0.239217D+01      0.266164D+01
   xx         0.429220D+02      0.636038D+01      0.707687D+01
   yx         0.605481D+01      0.897230D+00      0.998303D+00
   yy         0.352525D+02      0.522389D+01      0.581236D+01
   zx        -0.138554D+01     -0.205317D+00     -0.228445D+00
   zy         0.251756D+01      0.373063D+00      0.415089D+00
   zz         0.300468D+02      0.445247D+01      0.495404D+01

 ----------------------------------------------------------------------

 Dipole orientation:
     6          0.00000000         -0.00000000         -0.00000000
     9          0.98155594          1.78350230         -1.47759316
    17          2.42405475         -1.33407445          1.88160115
     9         -0.98156205         -1.78351603         -1.47757218
    17         -2.42404737          1.33409168          1.88159850

 Electric dipole moment (dipole orientation):
 (Debye = 10**-18 statcoulomb cm , SI units = C m)
                  (au)            (Debye)         (10**-30 SI)
   Tot        0.142210D+00      0.361461D+00      0.120571D+01
   x          0.000000D+00      0.000000D+00      0.000000D+00
   y          0.000000D+00      0.000000D+00      0.000000D+00
   z          0.142210D+00      0.361461D+00      0.120571D+01

 Dipole polarizability, Alpha (dipole orientation).
 (esu units = cm**3 , SI units = C**2 m**2 J**-1)
 Alpha(0;0):
               (au)            (10**-24 esu)      (10**-40 SI)
   iso        0.360737D+02      0.534558D+01      0.594776D+01
   aniso      0.161431D+02      0.239217D+01      0.266164D+01
   xx         0.420015D+02      0.622398D+01      0.692512D+01
   yx        -0.772722D+01     -0.114506D+01     -0.127405D+01
   yy         0.322137D+02      0.477358D+01      0.531133D+01
   zx         0.197866D-04      0.293207D-05      0.326237D-05
   zy         0.235879D-04      0.349537D-05      0.388913D-05
   zz         0.340060D+02      0.503917D+01      0.560683D+01

 ----------------------------------------------------------------------
 Unable to Open any file for archive entry.
 1\1\GINC-GADI-CPU-CLX-0115\Freq\RB2PLYP-FC\CC-pVTZ\C1Cl2F2\PK8622\21-S
 ep-2020\1\\#N Geom=AllCheck Guess=TCheck SCRF=Check GenChk RB2PLYP(FC)
 /CC-pVTZ Freq\\CFC-12 - CCl2F2 HARMONIC FREQUENCIES\\0,1\C\F,1,r2\Cl,1
 ,r3,2,a3\F,1,r4,2,a4,3,d4,0\Cl,1,r5,2,a5,3,d5,0\\r2=1.331132\r3=1.7706
 6672\a3=109.28767704\r4=1.33113189\a4=108.05496636\d4=241.1737083\r5=1
 .77066674\a5=109.28767036\d5=122.34741979\\Version=ES64L-G16RevC.01\St
 ate=1-A\HF=-1157.583545\MP2=-1157.9196291\RMSD=2.637e-09\RMSF=5.563e-0
 8\ZeroPoint=0.0131214\Thermal=0.0178563\ETot=-1157.9017728\HTot=-1157.
 9008286\GTot=-1157.9356539\Dipole=0.0554913,-0.1008285,-0.0835342\Dipo
 leDeriv=2.000363,0.198519,-0.0795836,0.198519,1.7489059,0.1446046,-0.0
 795835,0.1446046,1.5320387,-0.3806638,-0.0575547,0.0496869,-0.0575547,
 -0.3077612,-0.0902819,0.0665867,-0.1209892,-1.0046474,-0.6993776,-0.09
 278,0.1621346,-0.0902532,-0.1220124,-0.0030841,0.1637416,-0.0021999,-0
 .1261917,-0.5502858,0.250652,-0.0480931,0.250652,-0.867778,0.0873861,-
 0.064993,0.1180935,-0.2750078,-0.3700358,-0.2988362,-0.0841448,-0.3013
 63,-0.4513543,-0.1386246,-0.0857517,-0.139509,-0.1261917\Polar=42.9219
 505,6.0548074,35.2525359,-1.3855448,2.5175568,30.0467556\PG=C01 [X(C1C
 l2F2)]\NImag=0\\0.35030123,-0.04704187,0.40988753,0.01150216,-0.020899
 64,0.45133000,-0.06824960,0.00117647,0.00943787,0.07331397,0.00117647,
 -0.06973979,-0.01714878,-0.00284383,0.07691617,0.00198492,-0.00360665,
 -0.28580441,0.00323696,-0.00588159,0.39787506,-0.10455534,-0.00475671,
 0.02162905,-0.01517650,-0.00057674,0.02951042,0.19268605,-0.00903032,-
 0.03669668,0.00151336,0.00119206,0.00913223,-0.00033215,-0.00282729,0.
 03728908,0.01891158,0.00001780,-0.04071366,0.03857771,0.00100800,-0.03
 220862,-0.05619436,0.00101648,0.05755825,-0.11514098,0.08637909,-0.029
 71791,0.00766087,0.01221629,-0.01922331,-0.04283536,0.03360936,0.00059
 188,0.13951274,0.08637909,-0.22455437,0.05399797,0.01221629,-0.0078130
 8,0.03492909,0.02489425,-0.00473473,-0.00079633,-0.12312824,0.29547501
 ,-0.02226496,0.04045583,-0.08409828,-0.02975988,0.05407424,-0.04765341
 ,0.00299274,-0.00312506,0.00931714,0.04799326,-0.08720461,0.11311741,-
 0.06235532,-0.03575697,-0.01285117,0.00245126,-0.00997219,-0.01550900,
 -0.03011885,-0.02294381,-0.00188681,0.01080273,-0.00036140,0.00103885,
 0.07922019,-0.03148336,-0.07889668,-0.01746290,-0.01174098,-0.00849553
 ,-0.02510870,-0.01673351,-0.00498990,-0.00124594,-0.00907651,-0.058372
 82,-0.00420039,0.06903436,0.15075494,-0.01013370,-0.01596733,-0.040713
 65,-0.02149265,-0.03205187,-0.03220862,0.00206214,0.00092737,0.0060468
 9,0.00035607,-0.00092611,0.00931714,0.02920814,0.04801794,0.05755824\\
 0.00000006,-0.00000009,0.00000015,-0.00000002,0.00000001,0.,-0.0000000
 2,0.,-0.00000005,-0.00000003,0.00000005,-0.00000005,0.,0.00000002,-0.0
 0000004\\\@
 The archive entry for this job was punched.


 DESK:  A WASTEBASKET WITH DRAWERS.
 Job cpu time:       0 days  0 hours 42 minutes 12.9 seconds.
 Elapsed time:       0 days  0 hours 19 minutes 40.1 seconds.
 File lengths (MBytes):  RWF=   5126 Int=      0 D2E=      0 Chk=      3 Scr=      1
 Normal termination of Gaussian 16 at Mon Sep 21 05:46:55 2020.
