 Entering Gaussian System, Link 0=g16
 Input=CFC-22.gjf
 Output=CFC-22.log
 Initial command:
 /apps/gaussian/g16c01/g16/l1.exe "/jobfs/11529056.gadi-pbs/Gau-455094.inp" -scrdir="/jobfs/11529056.gadi-pbs/"
 Entering Link 1 = /apps/gaussian/g16c01/g16/l1.exe PID=    455095.
  
 Copyright (c) 1988-2019, Gaussian, Inc.  All Rights Reserved.
  
 This is part of the Gaussian(R) 16 program.  It is based on
 the Gaussian(R) 09 system (copyright 2009, Gaussian, Inc.),
 the Gaussian(R) 03 system (copyright 2003, Gaussian, Inc.),
 the Gaussian(R) 98 system (copyright 1998, Gaussian, Inc.),
 the Gaussian(R) 94 system (copyright 1995, Gaussian, Inc.),
 the Gaussian 92(TM) system (copyright 1992, Gaussian, Inc.),
 the Gaussian 90(TM) system (copyright 1990, Gaussian, Inc.),
 the Gaussian 88(TM) system (copyright 1988, Gaussian, Inc.),
 the Gaussian 86(TM) system (copyright 1986, Carnegie Mellon
 University), and the Gaussian 82(TM) system (copyright 1983,
 Carnegie Mellon University). Gaussian is a federally registered
 trademark of Gaussian, Inc.
  
 This software contains proprietary and confidential information,
 including trade secrets, belonging to Gaussian, Inc.
  
 This software is provided under written license and may be
 used, copied, transmitted, or stored only in accord with that
 written license.
  
 The following legend is applicable only to US Government
 contracts under FAR:
  
                    RESTRICTED RIGHTS LEGEND
  
 Use, reproduction and disclosure by the US Government is
 subject to restrictions as set forth in subparagraphs (a)
 and (c) of the Commercial Computer Software - Restricted
 Rights clause in FAR 52.227-19.
  
 Gaussian, Inc.
 340 Quinnipiac St., Bldg. 40, Wallingford CT 06492
  
  
 ---------------------------------------------------------------
 Warning -- This program may not be used in any manner that
 competes with the business of Gaussian, Inc. or will provide
 assistance to any competitor of Gaussian, Inc.  The licensee
 of this program is prohibited from giving any competitor of
 Gaussian, Inc. access to this program.  By using this program,
 the user acknowledges that Gaussian, Inc. is engaged in the
 business of creating and licensing software in the field of
 computational chemistry and represents and warrants to the
 licensee that it is not a competitor of Gaussian, Inc. and that
 it will not use this program in any manner prohibited above.
 ---------------------------------------------------------------
  

 Cite this work as:
 Gaussian 16, Revision C.01,
 M. J. Frisch, G. W. Trucks, H. B. Schlegel, G. E. Scuseria, 
 M. A. Robb, J. R. Cheeseman, G. Scalmani, V. Barone, 
 G. A. Petersson, H. Nakatsuji, X. Li, M. Caricato, A. V. Marenich, 
 J. Bloino, B. G. Janesko, R. Gomperts, B. Mennucci, H. P. Hratchian, 
 J. V. Ortiz, A. F. Izmaylov, J. L. Sonnenberg, D. Williams-Young, 
 F. Ding, F. Lipparini, F. Egidi, J. Goings, B. Peng, A. Petrone, 
 T. Henderson, D. Ranasinghe, V. G. Zakrzewski, J. Gao, N. Rega, 
 G. Zheng, W. Liang, M. Hada, M. Ehara, K. Toyota, R. Fukuda, 
 J. Hasegawa, M. Ishida, T. Nakajima, Y. Honda, O. Kitao, H. Nakai, 
 T. Vreven, K. Throssell, J. A. Montgomery, Jr., J. E. Peralta, 
 F. Ogliaro, M. J. Bearpark, J. J. Heyd, E. N. Brothers, K. N. Kudin, 
 V. N. Staroverov, T. A. Keith, R. Kobayashi, J. Normand, 
 K. Raghavachari, A. P. Rendell, J. C. Burant, S. S. Iyengar, 
 J. Tomasi, M. Cossi, J. M. Millam, M. Klene, C. Adamo, R. Cammi, 
 J. W. Ochterski, R. L. Martin, K. Morokuma, O. Farkas, 
 J. B. Foresman, and D. J. Fox, Gaussian, Inc., Wallingford CT, 2019.
 
 ******************************************
 Gaussian 16:  ES64L-G16RevC.01  3-Jul-2019
                21-Sep-2020 
 ******************************************
 %NprocShared=4
 Will use up to    4 processors via shared memory.
 %chk=checkpoint.chk
 -------------------------------------------------------------------
 # B2PLYP/cc-pVTZ Freq Opt=(VeryTight,ZMatrix,CalcAll) Int=UltraFine
 -------------------------------------------------------------------
 1/7=1,10=4,18=40,38=1/1,3;
 2/12=2,17=6,18=5,29=3,40=1/2;
 3/5=16,6=1,11=9,25=1,30=1,71=2,74=-47,75=-5,140=1/1,2,3;
 4//1;
 5/5=2,38=5/2;
 8/6=3,8=1,10=1,19=11,30=-1/1;
 9/15=3,16=-3/6;
 11/6=1,8=1,15=11,17=12,24=-1,27=1,28=-2,29=300,32=6,42=3/1,2,10;
 10/6=2,21=1/2;
 8/6=4,8=1,10=1,19=11,30=-1/11,4;
 10/5=1,20=4/2;
 11/12=2,14=11,16=1,17=2,28=-2,42=3,76=2/2,10,12;
 6/7=2,8=2,9=2,10=2,18=1/1;
 7/10=1,12=2,25=1,44=2/1,2,3,16;
 1/7=1,10=4,18=40/3(3);
 2/29=3/2;
 7/8=1,9=1,25=1,44=-1/16;
 99//99;
 2/29=3/2;
 3/5=16,6=1,11=9,25=1,30=1,71=2,74=-47,75=-5,140=1/1,2,3;
 4/5=5,16=3,69=1/1;
 5/5=2,38=5/2;
 8/6=3,8=1,10=1,19=11,30=-1/1;
 9/15=3,16=-3/6;
 11/6=1,8=1,15=11,17=12,24=-1,27=1,28=-2,29=300,32=6,42=3/1,2,10;
 10/6=2,21=1/2;
 8/6=4,8=1,10=1,19=11,30=-1/11,4;
 10/5=1,20=4/2;
 11/12=2,14=11,16=1,17=2,28=-2,42=3,76=2/2,10,12;
 7/10=1,12=2,25=1,44=2/1,2,3,16;
 1/7=1,10=4,18=40/3(-12);
 2/29=3/2;
 6/7=2,8=2,9=2,10=2,18=1/1;
 7/8=1,9=1,25=1,44=-1/16;
 99//99;
 -----------------------------------
 CFC-22 - HClF2 HARMONIC FREQUENCIES
 -----------------------------------
 Symbolic Z-matrix:
 Charge =  0 Multiplicity = 1
 C
 F                    1    r2
 Cl                   1    r3       2    a3
 F                    1    r4       2    a4       3    d4       0
 H                    1    r5       2    a5       3    d5       0
       Variables:
  r2                    1.3554                   
  r3                    1.7607                   
  a3                  110.09                     
  r4                    1.3552                   
  a4                  107.02                     
  d4                  240.09                     
  r5                    1.0931                   
  a5                  109.45                     
  d5                  121.56                     
 

 GradGradGradGradGradGradGradGradGradGradGradGradGradGradGradGradGradGrad
 Berny optimization.
 Initialization pass.
                       ----------------------------
                       !    Initial Parameters    !
                       ! (Angstroms and Degrees)  !
 ----------------------                            ----------------------
 !      Name          Value   Derivative information (Atomic Units)     !
 ------------------------------------------------------------------------
 !       r2          1.3554   calculate D2E/DX2 analytically            !
 !       r3          1.7607   calculate D2E/DX2 analytically            !
 !       a3        110.09     calculate D2E/DX2 analytically            !
 !       r4          1.3552   calculate D2E/DX2 analytically            !
 !       a4        107.02     calculate D2E/DX2 analytically            !
 !       d4        240.09     calculate D2E/DX2 analytically            !
 !       r5          1.0931   calculate D2E/DX2 analytically            !
 !       a5        109.45     calculate D2E/DX2 analytically            !
 !       d5        121.56     calculate D2E/DX2 analytically            !
 ------------------------------------------------------------------------
 Trust Radius=3.00D-01 FncErr=1.00D-07 GrdErr=1.00D-07 EigMax=2.50D+02 EigMin=1.00D-04
 Number of steps in this run=     20 maximum allowed number of steps=    100.
 GradGradGradGradGradGradGradGradGradGradGradGradGradGradGradGradGradGrad

 ---------------------------------------------------------------------------------------------------
                            Z-MATRIX (ANGSTROMS AND DEGREES)
   CD    Cent   Atom    N1       Length/X        N2       Alpha/Y        N3        Beta/Z          J
 ---------------------------------------------------------------------------------------------------
      1      1  C 
      2      2  F        1   1.355400(     1)
      3      3  Cl       1   1.760700(     2)      2  110.090(     5)
      4      4  F        1   1.355200(     3)      2  107.020(     6)      3  240.090(     8)      0
      5      5  H        1   1.093100(     4)      2  109.450(     7)      3  121.560(     9)      0
 ---------------------------------------------------------------------------------------------------
                         Z-Matrix orientation:                         
 ---------------------------------------------------------------------
 Center     Atomic      Atomic             Coordinates (Angstroms)
 Number     Number       Type             X           Y           Z
 ---------------------------------------------------------------------
      1          6           0        0.000000    0.000000    0.000000
      2          9           0        0.000000    0.000000    1.355400
      3         17           0        1.653569    0.000000   -0.604793
      4          9           0       -0.646159    1.123252   -0.396674
      5          1           0       -0.539469   -0.878268   -0.363985
 ---------------------------------------------------------------------
                    Distance matrix (angstroms):
                    1          2          3          4          5
     1  C    0.000000
     2  F    1.355400   0.000000
     3  Cl   1.760700   2.564497   0.000000
     4  F    1.355200   2.179216   2.567831   0.000000
     5  H    1.093100   2.004661   2.374607   2.004628   0.000000
 Stoichiometry    CHClF2
 Framework group  C1[X(CHClF2)]
 Deg. of freedom     9
 Full point group                 C1      NOp   1
 Largest Abelian subgroup         C1      NOp   1
 Largest concise Abelian subgroup C1      NOp   1
                         Standard orientation:                         
 ---------------------------------------------------------------------
 Center     Atomic      Atomic             Coordinates (Angstroms)
 Number     Number       Type             X           Y           Z
 ---------------------------------------------------------------------
      1          6           0       -0.426688   -0.000436    0.369956
      2          9           0       -1.035069    1.091321   -0.154494
      3         17           0        1.282607   -0.001656   -0.052387
      4          9           0       -1.041902   -1.087884   -0.154958
      5          1           0       -0.551457   -0.000181    1.455912
 ---------------------------------------------------------------------
 Rotational constants (GHZ):          10.1387353           4.7793807           3.4587103
 Standard basis: CC-pVTZ (5D, 7F)
 There are   159 symmetry adapted cartesian basis functions of A   symmetry.
 There are   138 symmetry adapted basis functions of A   symmetry.
   138 basis functions,   267 primitive gaussians,   159 cartesian basis functions
    21 alpha electrons       21 beta electrons
       nuclear repulsion energy       167.0397416283 Hartrees.
 NAtoms=    5 NActive=    5 NUniq=    5 SFac= 1.00D+00 NAtFMM=   60 NAOKFM=F Big=F
 Integral buffers will be    131072 words long.
 Regular integral format.
 Two-electron integral symmetry is turned on.
 One-electron integrals computed using PRISM.
 NBasis=   138 RedAO= T EigKep=  1.92D-03  NBF=   138
 NBsUse=   138 1.00D-06 EigRej= -1.00D+00 NBFU=   138
 ExpMin= 1.03D-01 ExpMax= 4.56D+05 ExpMxC= 1.44D+03 IAcc=3 IRadAn=         5 AccDes= 0.00D+00
 Harris functional with IExCor=  419 and IRadAn=       5 diagonalized for initial guess.
 HarFok:  IExCor=  419 AccDes= 0.00D+00 IRadAn=         5 IDoV= 1 UseB2=F ITyADJ=14
 ICtDFT=  3500011 ScaDFX=  1.000000  1.000000  1.000000  1.000000
 FoFCou: FMM=F IPFlag=           0 FMFlag=      100000 FMFlg1=           0
         NFxFlg=           0 DoJE=T BraDBF=F KetDBF=T FulRan=T
         wScrn=  0.000000 ICntrl=       500 IOpCl=  0 I1Cent=   200000004 NGrid=           0
         NMat0=    1 NMatS0=      1 NMatT0=    0 NMatD0=    1 NMtDS0=    0 NMtDT0=    0
 Petite list used in FoFCou.
 Keep R1 ints in memory in canonical form, NReq=49938100.
 Requested convergence on RMS density matrix=1.00D-08 within 128 cycles.
 Requested convergence on MAX density matrix=1.00D-06.
 Requested convergence on             energy=1.00D-06.
 No special actions if energy rises.
 Integral accuracy reduced to 1.0D-05 until final iterations.
 Initial convergence to 1.0D-05 achieved.  Increase integral accuracy.
 SCF Done:  E(RB2PLYP) =  -698.158058320     A.U. after   12 cycles
            NFock= 12  Conv=0.35D-08     -V/T= 2.0024
 DoSCS=T DFT=T ScalE2(SS,OS)=  0.270000  0.270000
 ExpMin= 1.03D-01 ExpMax= 4.56D+05 ExpMxC= 1.44D+03 IAcc=3 IRadAn=         5 AccDes= 0.00D+00
 HarFok:  IExCor=  205 AccDes= 0.00D+00 IRadAn=         5 IDoV=-2 UseB2=F ITyADJ=14
 ICtDFT= 12500011 ScaDFX=  1.000000  1.000000  1.000000  1.000000
 Range of M.O.s used for correlation:     9   138
 NBasis=   138 NAE=    21 NBE=    21 NFC=     8 NFV=     0
 NROrb=    130 NOA=    13 NOB=    13 NVA=   117 NVB=   117
 DoSCS=T DFT=T ScalE2(SS,OS)=  0.270000  0.270000
 Disk-based method using ON**2 memory for 13 occupieds at a time.
 Permanent disk used for amplitudes=     7461909 words.
 Estimated scratch disk usage=    96543444 words.
 Actual    scratch disk usage=    93434580 words.
 GetIJB would need an additional    21614461 words of memory to use all   4 processors.
 JobTyp=1 Pass  1:  I=   9 to  21 NPSUse=  3 ParTrn=F ParDer=T DoDerP=T.
 Spin components of T(2) and E(2):
     alpha-alpha T2 =       0.4215913841D-01 E2=     -0.3607981868D-01
     alpha-beta  T2 =       0.2237574658D+00 E2=     -0.2033146965D+00
     beta-beta   T2 =       0.4215913841D-01 E2=     -0.3607981868D-01
 E2(B2PLYP) =    -0.2754743339D+00 E(B2PLYP) =    -0.69843353265395D+03
 G2DrvN: will do     6 centers at a time, making    1 passes.
 Calling FoFCou, ICntrl=  3107 FMM=F I1Cent=   0 AccDes= 0.00D+00.
 End of G2Drv F.D. properties file   721 does not exist.
 End of G2Drv F.D. properties file   722 does not exist.
 End of G2Drv F.D. properties file   788 does not exist.
          IDoAtm=11111
          Differentiating once with respect to electric field.
                with respect to dipole field.
          Differentiating once with respect to nuclear coordinates.
 Keep R1 ints in memory in canonical form, NReq=49929014.
          There are    18 degrees of freedom in the 1st order CPHF.  IDoFFX=6 NUNeed=    18.
     15 vectors produced by pass  0 Test12= 1.36D-14 5.56D-09 XBig12= 1.35D+01 1.68D+00.
 AX will form    15 AO Fock derivatives at one time.
     15 vectors produced by pass  1 Test12= 1.36D-14 5.56D-09 XBig12= 1.41D+00 3.19D-01.
     15 vectors produced by pass  2 Test12= 1.36D-14 5.56D-09 XBig12= 4.75D-02 5.31D-02.
     15 vectors produced by pass  3 Test12= 1.36D-14 5.56D-09 XBig12= 1.58D-03 1.20D-02.
     15 vectors produced by pass  4 Test12= 1.36D-14 5.56D-09 XBig12= 2.10D-05 9.25D-04.
     15 vectors produced by pass  5 Test12= 1.36D-14 5.56D-09 XBig12= 1.30D-07 6.38D-05.
     13 vectors produced by pass  6 Test12= 1.36D-14 5.56D-09 XBig12= 6.01D-10 4.71D-06.
      5 vectors produced by pass  7 Test12= 1.36D-14 5.56D-09 XBig12= 2.30D-12 2.89D-07.
      2 vectors produced by pass  8 Test12= 1.36D-14 5.56D-09 XBig12= 8.33D-15 1.70D-08.
 InvSVY:  IOpt=1 It=  1 EMax= 8.88D-16
 Solved reduced A of dimension   110 with    15 vectors.
 End of Minotr F.D. properties file   721 does not exist.
 End of Minotr F.D. properties file   722 does not exist.
 End of Minotr F.D. properties file   788 does not exist.
 MDV=   104857600.
 DoSCS=T DFT=T ScalE2(SS,OS)=  0.270000  0.270000
 Form MO integral derivatives with frozen-active canonical formalism.
 Discarding MO integrals.
 Reordered first order wavefunction length =     12073698
 In DefCFB: NBatch=  1 ICI= 21 ICA=117 LFMax= 30
            Large arrays: LIAPS=   215645976 LIARS=   106650999 words.
 Semi-Direct transformation.
 ModeAB=           2 MOrb=            21 LenV=     104182538
 LASXX=     24673236 LTotXX=    24673236 LenRXX=    24673236
 LTotAB=    25213041 MaxLAS=    36862560 LenRXY=    36862560
 NonZer=    49346472 LenScr=    74764800 LnRSAI=           0
 LnScr1=           0 LExtra=           0 Total=    136300596
 MaxDsk=          -1 SrtSym=           F ITran=            4
 JobTyp=0 Pass  1:  I=   1 to  21.
 (rs|ai) integrals will be sorted in core.
 SymMOI:  orbitals are not symmetric.
 DoSCS=T DFT=T ScalE2(SS,OS)=  0.270000  0.270000
 Spin components of T(2) and E(2):
     alpha-alpha T2 =       0.4215913841D-01 E2=     -0.3607981868D-01
     alpha-beta  T2 =       0.2237574658D+00 E2=     -0.2033146965D+00
     beta-beta   T2 =       0.4215913841D-01 E2=     -0.3607981868D-01
 E2(B2PLYP) =    -0.2754743339D+00 E(B2PLYP) =    -0.69843353265395D+03
          IDoAtm=11111
          Differentiating once with respect to electric field.
                with respect to dipole field.
          Differentiating once with respect to nuclear coordinates.
 Keep R1 ints in memory in canonical form, NReq=49941574.
          There are     1 degrees of freedom in the 1st order CPHF.  IDoFFX=0 NUNeed=     1.
 LinEq1:  Iter=  0 NonCon=     1 RMS=1.86D-03 Max=3.31D-02 NDo=     1
 AX will form     1 AO Fock derivatives at one time.
 LinEq1:  Iter=  1 NonCon=     1 RMS=7.46D-04 Max=1.07D-02 NDo=     1
 LinEq1:  Iter=  2 NonCon=     1 RMS=2.12D-04 Max=3.79D-03 NDo=     1
 LinEq1:  Iter=  3 NonCon=     1 RMS=7.96D-05 Max=1.35D-03 NDo=     1
 LinEq1:  Iter=  4 NonCon=     1 RMS=2.02D-05 Max=4.00D-04 NDo=     1
 LinEq1:  Iter=  5 NonCon=     1 RMS=6.98D-06 Max=9.75D-05 NDo=     1
 LinEq1:  Iter=  6 NonCon=     1 RMS=2.02D-06 Max=2.59D-05 NDo=     1
 LinEq1:  Iter=  7 NonCon=     1 RMS=6.65D-07 Max=9.04D-06 NDo=     1
 LinEq1:  Iter=  8 NonCon=     1 RMS=1.22D-07 Max=1.52D-06 NDo=     1
 LinEq1:  Iter=  9 NonCon=     1 RMS=2.51D-08 Max=3.35D-07 NDo=     1
 LinEq1:  Iter= 10 NonCon=     1 RMS=6.01D-09 Max=6.70D-08 NDo=     1
 LinEq1:  Iter= 11 NonCon=     1 RMS=3.34D-09 Max=4.72D-08 NDo=     1
 LinEq1:  Iter= 12 NonCon=     1 RMS=9.95D-10 Max=2.05D-08 NDo=     1
 LinEq1:  Iter= 13 NonCon=     1 RMS=2.58D-10 Max=4.29D-09 NDo=     1
 LinEq1:  Iter= 14 NonCon=     1 RMS=5.82D-11 Max=1.08D-09 NDo=     1
 LinEq1:  Iter= 15 NonCon=     0 RMS=1.21D-11 Max=2.17D-10 NDo=     1
 Linear equations converged to 1.000D-10 1.000D-09 after    15 iterations.
 End of Minotr F.D. properties file   721 does not exist.
 End of Minotr F.D. properties file   722 does not exist.
 End of Minotr F.D. properties file   788 does not exist.
 Symmetrizing basis deriv contribution to polar:
 IMax=3 JMax=2 DiffMx= 0.00D+00
 G2DrvN: will do     6 centers at a time, making    1 passes.
 Calling FoFCou, ICntrl=  3107 FMM=F I1Cent=   0 AccDes= 0.00D+00.
 End of G2Drv F.D. properties file   721 does not exist.
 End of G2Drv F.D. properties file   722 does not exist.
 End of G2Drv F.D. properties file   788 does not exist.
 DoSCS=T DFT=T ScalE2(SS,OS)=  0.270000  0.270000
 Would need an additional    59002050 words for in-memory AO integral storage.
 DD1Dir will call FoFJK  16 times, MxPair=        42
 NAB=   231 NAA=   210 NBB=     0 NumPrc=  4.
 FoFJK:  IHMeth= 1 ICntrl=     200 DoSepK=F KAlg= 0 I1Cent=           0 FoldK=F
 IRaf= 990000000 NMat=      42 IRICut=      52 DoRegI=T DoRafI=T ISym2E= 2 IDoP0=3 IntGTp=3.
 FoFCou: FMM=F IPFlag=           0 FMFlag=           0 FMFlg1=           0
         NFxFlg=           0 DoJE=F BraDBF=F KetDBF=F FulRan=T
         wScrn=  0.000000 ICntrl=       200 IOpCl=  0 I1Cent=           0 NGrid=           0
         NMat0=   42 NMatS0=      0 NMatT0=   21 NMatD0=   42 NMtDS0=    0 NMtDT0=    0
 Integrals replicated using symmetry in FoFCou.
 Raff kept on since  69.05% of shell-pairs survive, threshold=   0.20 IRatSp=69.
 Discarding MO integrals.

 **********************************************************************

            Population analysis using the SCF Density.

 **********************************************************************

 Orbital symmetries:
       Occupied  (A) (A) (A) (A) (A) (A) (A) (A) (A) (A) (A) (A)
                 (A) (A) (A) (A) (A) (A) (A) (A) (A)
       Virtual   (A) (A) (A) (A) (A) (A) (A) (A) (A) (A) (A) (A)
                 (A) (A) (A) (A) (A) (A) (A) (A) (A) (A) (A) (A)
                 (A) (A) (A) (A) (A) (A) (A) (A) (A) (A) (A) (A)
                 (A) (A) (A) (A) (A) (A) (A) (A) (A) (A) (A) (A)
                 (A) (A) (A) (A) (A) (A) (A) (A) (A) (A) (A) (A)
                 (A) (A) (A) (A) (A) (A) (A) (A) (A) (A) (A) (A)
                 (A) (A) (A) (A) (A) (A) (A) (A) (A) (A) (A) (A)
                 (A) (A) (A) (A) (A) (A) (A) (A) (A) (A) (A) (A)
                 (A) (A) (A) (A) (A) (A) (A) (A) (A) (A) (A) (A)
                 (A) (A) (A) (A) (A) (A) (A) (A) (A)
 The electronic state is 1-A.
 Alpha  occ. eigenvalues -- -102.95801 -25.39891 -25.39864 -10.86215  -9.94733
 Alpha  occ. eigenvalues --   -7.58751  -7.58136  -7.58125  -1.45732  -1.39465
 Alpha  occ. eigenvalues --   -1.00401  -0.80843  -0.68228  -0.66786  -0.63638
 Alpha  occ. eigenvalues --   -0.55470  -0.53429  -0.52653  -0.46111  -0.40704
 Alpha  occ. eigenvalues --   -0.40380
 Alpha virt. eigenvalues --    0.06481   0.10507   0.15210   0.18979   0.28193
 Alpha virt. eigenvalues --    0.34548   0.35170   0.38150   0.41325   0.42509
 Alpha virt. eigenvalues --    0.42782   0.46215   0.49770   0.50943   0.54339
 Alpha virt. eigenvalues --    0.60951   0.65815   0.69061   0.77573   0.84502
 Alpha virt. eigenvalues --    0.87533   0.91631   0.94588   0.95723   1.02473
 Alpha virt. eigenvalues --    1.04734   1.14392   1.15282   1.18624   1.21133
 Alpha virt. eigenvalues --    1.24208   1.43646   1.60936   1.75247   1.86599
 Alpha virt. eigenvalues --    1.96623   1.99303   2.02431   2.02760   2.03690
 Alpha virt. eigenvalues --    2.05355   2.07184   2.11514   2.12198   2.15321
 Alpha virt. eigenvalues --    2.19516   2.20079   2.27710   2.30059   2.30698
 Alpha virt. eigenvalues --    2.33232   2.33473   2.35788   2.36390   2.44851
 Alpha virt. eigenvalues --    2.45383   2.59860   2.61041   2.62850   2.70770
 Alpha virt. eigenvalues --    2.99714   3.03065   3.12649   3.15914   3.17567
 Alpha virt. eigenvalues --    3.32545   3.32785   3.34400   3.46949   3.50915
 Alpha virt. eigenvalues --    3.55007   3.59473   3.67139   3.67747   3.86694
 Alpha virt. eigenvalues --    3.89229   3.94734   4.08736   4.12587   4.70786
 Alpha virt. eigenvalues --    4.86660   4.87029   4.91525   4.97805   5.04070
 Alpha virt. eigenvalues --    5.05995   5.15936   5.37759   6.09432   6.12151
 Alpha virt. eigenvalues --    7.04251   7.04455   7.04642   7.05351   7.06882
 Alpha virt. eigenvalues --    7.09689   7.13024   7.24225   7.27370   7.41540
 Alpha virt. eigenvalues --    7.45373   7.50165   7.54673   7.66229   8.51203
 Alpha virt. eigenvalues --    8.55029   8.59491   8.60375   8.92227   8.92776
 Alpha virt. eigenvalues --    9.00652   9.09846   9.18378   9.27511  10.87375
 Alpha virt. eigenvalues --   11.27771  11.65290
          Condensed to atoms (all electrons):
               1          2          3          4          5
     1  C    4.082144   0.368581   0.329383   0.368738   0.427199
     2  F    0.368581   8.965549  -0.048160  -0.045851  -0.043839
     3  Cl   0.329383  -0.048160  16.938408  -0.047640  -0.058872
     4  F    0.368738  -0.045851  -0.047640   8.964702  -0.043934
     5  H    0.427199  -0.043839  -0.058872  -0.043934   0.637991
 Mulliken charges:
               1
     1  C    0.423956
     2  F   -0.196279
     3  Cl  -0.113118
     4  F   -0.196014
     5  H    0.081456
 Sum of Mulliken charges =  -0.00000
 Mulliken charges with hydrogens summed into heavy atoms:
               1
     1  C    0.505412
     2  F   -0.196279
     3  Cl  -0.113118
     4  F   -0.196014
 APT charges:
               1
     1  C    1.416122
     2  F   -0.530980
     3  Cl  -0.320023
     4  F   -0.531025
     5  H   -0.034094
 Sum of APT charges =  -0.00000
 APT charges with hydrogens summed into heavy atoms:
               1
     1  C    1.382028
     2  F   -0.530980
     3  Cl  -0.320023
     4  F   -0.531025
 Electronic spatial extent (au):  <R**2>=            326.2451
 Charge=             -0.0000 electrons
 Dipole moment (field-independent basis, Debye):
    X=              0.1824    Y=             -0.0039    Z=              1.5580  Tot=              1.5686
 Quadrupole moment (field-independent basis, Debye-Ang):
   XX=            -28.9185   YY=            -30.2333   ZZ=            -26.3162
   XY=              0.0013   XZ=             -1.3885   YZ=              0.0001
 Traceless Quadrupole moment (field-independent basis, Debye-Ang):
   XX=             -0.4291   YY=             -1.7440   ZZ=              2.1731
   XY=              0.0013   XZ=             -1.3885   YZ=              0.0001
 Octapole moment (field-independent basis, Debye-Ang**2):
  XXX=             -6.0579  YYY=              0.0094  ZZZ=              0.6580  XYY=             -1.9143
  XXY=              0.0154  XXZ=             -1.0808  XZZ=             -4.9735  YZZ=              0.0073
  YYZ=             -0.4815  XYZ=              0.0010
 Hexadecapole moment (field-independent basis, Debye-Ang**3):
 XXXX=           -206.9777 YYYY=            -95.2440 ZZZZ=            -35.1087 XXXY=              0.0130
 XXXZ=             -1.3169 YYYX=              0.0327 YYYZ=             -0.0034 ZZZX=              0.2277
 ZZZY=              0.0007 XXYY=            -54.1651 XXZZ=            -42.4538 YYZZ=            -22.0090
 XXYZ=              0.0041 YYXZ=              0.7374 ZZXY=              0.0093
 N-N= 1.670397416283D+02 E-N=-1.994366662777D+03  KE= 6.964641693465D+02
  Exact polarizability:      32.548       0.001      22.172      -1.834      -0.000      21.252
 Approx polarizability:      36.454       0.008      26.572      -1.818      -0.002      25.151
 Calling FoFJK, ICntrl=  10100127 FMM=F ISym2X=0 I1Cent= 0 IOpClX= 0 NMat=1 NMatS=1 NMatT=0.
 ***** Axes restored to original set *****
 -------------------------------------------------------------------
 Center     Atomic                   Forces (Hartrees/Bohr)
 Number     Number              X              Y              Z
 -------------------------------------------------------------------
      1        6          -0.013823724    0.005111991    0.008800959
      2        9           0.001955058   -0.001362038   -0.010074293
      3       17           0.001146617    0.000186419   -0.000634627
      4        9           0.006368070   -0.008405560    0.000711624
      5        1           0.004353978    0.004469189    0.001196337
 -------------------------------------------------------------------
 Cartesian Forces:  Max     0.013823724 RMS     0.006086487
 -----------------------------------------------------------------------------------------------
                       Internal Coordinate Forces (Hartree/Bohr or radian)
  Cent   Atom   N1       Length/X         N2         Alpha/Y        N3         Beta/Z          J
 -----------------------------------------------------------------------------------------------
      1  C 
      2  F        1  -0.010074(     1)
      3  Cl       1   0.001295(     2)      2   0.000673(     5)
      4  F        1  -0.010212(     3)      2   0.006099(     6)      3   0.003253(     8)     0
      5  H        1  -0.006138(     4)      2   0.001857(     7)      3  -0.002670(     9)     0
 -----------------------------------------------------------------------------------------------
 Internal  Forces:  Max     0.010211505 RMS     0.005811223

 GradGradGradGradGradGradGradGradGradGradGradGradGradGradGradGradGradGrad
 Berny optimization.
 Search for a local minimum.
 Step number   1 out of a maximum of   20
 All quantities printed in internal units (Hartrees-Bohrs-Radians)
 Second derivative matrix not updated -- analytic derivatives used.
 The second derivative matrix:
                          r2        r3        a3        r4        a4
           r2           0.36200
           r3           0.04049   0.22320
           a3           0.05937   0.00294   0.37603
           r4           0.05165   0.04022  -0.02940   0.36219
           a4           0.07211  -0.02749   0.09691   0.00979   0.46372
           d4           0.00361  -0.04538   0.06251   0.01115   0.02151
           r5           0.01215   0.00538  -0.00154   0.01216  -0.00266
           a5           0.06919  -0.02724   0.06540  -0.02995   0.07087
           d5          -0.00158   0.04207  -0.03863  -0.05885   0.05275
                          d4        r5        a5        d5
           d4           0.34590
           r5           0.00766   0.33554
           a5          -0.04523   0.00340   0.26888
           d5          -0.13616  -0.00525   0.00559   0.23255
 ITU=  0
     Eigenvalues ---    0.11022   0.15470   0.24451   0.26301   0.33070
     Eigenvalues ---    0.34361   0.42435   0.48630   0.61262
 RFO step:  Lambda=-1.03017816D-03 EMin= 1.10224652D-01
 Linear search not attempted -- first point.
 Variable       Old X    -DE/DX   Delta X   Delta X   Delta X     New X
                                 (Linear)    (Quad)   (Total)
    r2        2.56133  -0.01007   0.00000  -0.03164  -0.03164   2.52969
    r3        3.32724   0.00129   0.00000   0.02831   0.02831   3.35555
    a3        1.92143   0.00067   0.00000  -0.00774  -0.00774   1.91369
    r4        2.56096  -0.01021   0.00000  -0.03129  -0.03129   2.52966
    a4        1.86785   0.00610   0.00000   0.02314   0.02314   1.89099
    d4        4.19036   0.00325   0.00000   0.00494   0.00494   4.19530
    r5        2.06566  -0.00614   0.00000  -0.01695  -0.01695   2.04871
    a5        1.91026   0.00186   0.00000   0.01182   0.01182   1.92208
    d5        2.12162  -0.00267   0.00000  -0.02892  -0.02892   2.09271
         Item               Value     Threshold  Converged?
 Maximum Force            0.010212     0.000002     NO 
 RMS     Force            0.005811     0.000001     NO 
 Maximum Displacement     0.031644     0.000006     NO 
 RMS     Displacement     0.022766     0.000004     NO 
 Predicted change in Energy=-5.174917D-04
 GradGradGradGradGradGradGradGradGradGradGradGradGradGradGradGradGradGrad

 ---------------------------------------------------------------------------------------------------
                            Z-MATRIX (ANGSTROMS AND DEGREES)
   CD    Cent   Atom    N1       Length/X        N2       Alpha/Y        N3        Beta/Z          J
 ---------------------------------------------------------------------------------------------------
      1      1  C 
      2      2  F        1   1.338655(     1)
      3      3  Cl       1   1.775680(     2)      2  109.646(     5)
      4      4  F        1   1.338641(     3)      2  108.346(     6)      3  240.373(     8)      0
      5      5  H        1   1.084129(     4)      2  110.127(     7)      3  119.903(     9)      0
 ---------------------------------------------------------------------------------------------------
                         Z-Matrix orientation:                         
 ---------------------------------------------------------------------
 Center     Atomic      Atomic             Coordinates (Angstroms)
 Number     Number       Type             X           Y           Z
 ---------------------------------------------------------------------
      1          6           0        0.000000    0.000000    0.000000
      2          9           0        0.000000    0.000000    1.338655
      3         17           0        1.672309    0.000000   -0.597011
      4          9           0       -0.628123    1.104490   -0.421334
      5          1           0       -0.507472   -0.882406   -0.373052
 ---------------------------------------------------------------------
                    Distance matrix (angstroms):
                    1          2          3          4          5
     1  C    0.000000
     2  F    1.338655   0.000000
     3  Cl   1.775680   2.558011   0.000000
     4  F    1.338641   2.170714   2.557879   0.000000
     5  H    1.084129   1.991509   2.362254   1.991141   0.000000
 Stoichiometry    CHClF2
 Framework group  C1[X(CHClF2)]
 Deg. of freedom     9
 Full point group                 C1      NOp   1
 Largest Abelian subgroup         C1      NOp   1
 Largest concise Abelian subgroup C1      NOp   1
                         Standard orientation:                         
 ---------------------------------------------------------------------
 Center     Atomic      Atomic             Coordinates (Angstroms)
 Number     Number       Type             X           Y           Z
 ---------------------------------------------------------------------
      1          6           0       -0.444621    0.000004    0.364493
      2          9           0       -1.032170    1.085312   -0.154052
      3         17           0        1.281901    0.000067   -0.050430
      4          9           0       -1.031918   -1.085401   -0.154098
      5          1           0       -0.547803   -0.000359    1.443701
 ---------------------------------------------------------------------
 Rotational constants (GHZ):          10.2308343           4.8014015           3.4762778
 Standard basis: CC-pVTZ (5D, 7F)
 There are   159 symmetry adapted cartesian basis functions of A   symmetry.
 There are   138 symmetry adapted basis functions of A   symmetry.
   138 basis functions,   267 primitive gaussians,   159 cartesian basis functions
    21 alpha electrons       21 beta electrons
       nuclear repulsion energy       167.6611049879 Hartrees.
 NAtoms=    5 NActive=    5 NUniq=    5 SFac= 1.00D+00 NAtFMM=   60 NAOKFM=F Big=F
 Integral buffers will be    131072 words long.
 Regular integral format.
 Two-electron integral symmetry is turned on.
 One-electron integrals computed using PRISM.
 NBasis=   138 RedAO= T EigKep=  1.86D-03  NBF=   138
 NBsUse=   138 1.00D-06 EigRej= -1.00D+00 NBFU=   138
 Initial guess from the checkpoint file:  "checkpoint.chk"
 B after Tr=    -0.000000    0.000000   -0.000000
         Rot=    0.999999    0.000166    0.000989   -0.000989 Ang=   0.16 deg.
 ExpMin= 1.03D-01 ExpMax= 4.56D+05 ExpMxC= 1.44D+03 IAcc=3 IRadAn=         5 AccDes= 0.00D+00
 Harris functional with IExCor=  419 and IRadAn=       5 diagonalized for initial guess.
 HarFok:  IExCor=  419 AccDes= 0.00D+00 IRadAn=         5 IDoV= 1 UseB2=F ITyADJ=14
 ICtDFT=  3500011 ScaDFX=  1.000000  1.000000  1.000000  1.000000
 FoFCou: FMM=F IPFlag=           0 FMFlag=      100000 FMFlg1=           0
         NFxFlg=           0 DoJE=T BraDBF=F KetDBF=T FulRan=T
         wScrn=  0.000000 ICntrl=       500 IOpCl=  0 I1Cent=   200000004 NGrid=           0
         NMat0=    1 NMatS0=      1 NMatT0=    0 NMatD0=    1 NMtDS0=    0 NMtDT0=    0
 Petite list used in FoFCou.
 Keep R1 ints in memory in canonical form, NReq=49938100.
 Requested convergence on RMS density matrix=1.00D-08 within 128 cycles.
 Requested convergence on MAX density matrix=1.00D-06.
 Requested convergence on             energy=1.00D-06.
 No special actions if energy rises.
 Integral accuracy reduced to 1.0D-05 until final iterations.
 Initial convergence to 1.0D-05 achieved.  Increase integral accuracy.
 SCF Done:  E(RB2PLYP) =  -698.159214324     A.U. after   10 cycles
            NFock= 10  Conv=0.75D-08     -V/T= 2.0023
 DoSCS=T DFT=T ScalE2(SS,OS)=  0.270000  0.270000
 ExpMin= 1.03D-01 ExpMax= 4.56D+05 ExpMxC= 1.44D+03 IAcc=3 IRadAn=         5 AccDes= 0.00D+00
 HarFok:  IExCor=  205 AccDes= 0.00D+00 IRadAn=         5 IDoV=-2 UseB2=F ITyADJ=14
 ICtDFT= 12500011 ScaDFX=  1.000000  1.000000  1.000000  1.000000
 Range of M.O.s used for correlation:     9   138
 NBasis=   138 NAE=    21 NBE=    21 NFC=     8 NFV=     0
 NROrb=    130 NOA=    13 NOB=    13 NVA=   117 NVB=   117
 DoSCS=T DFT=T ScalE2(SS,OS)=  0.270000  0.270000
 Disk-based method using ON**2 memory for 13 occupieds at a time.
 Permanent disk used for amplitudes=     7461909 words.
 Estimated scratch disk usage=    96543444 words.
 Actual    scratch disk usage=    93434580 words.
 GetIJB would need an additional    21614771 words of memory to use all   4 processors.
 JobTyp=1 Pass  1:  I=   9 to  21 NPSUse=  3 ParTrn=F ParDer=T DoDerP=T.
 Spin components of T(2) and E(2):
     alpha-alpha T2 =       0.4186554528D-01 E2=     -0.3601080203D-01
     alpha-beta  T2 =       0.2220612840D+00 E2=     -0.2028022019D+00
     beta-beta   T2 =       0.4186554528D-01 E2=     -0.3601080203D-01
 E2(B2PLYP) =    -0.2748238060D+00 E(B2PLYP) =    -0.69843403813036D+03
 G2DrvN: will do     6 centers at a time, making    1 passes.
 Calling FoFCou, ICntrl=  3107 FMM=F I1Cent=   0 AccDes= 0.00D+00.
 End of G2Drv F.D. properties file   721 does not exist.
 End of G2Drv F.D. properties file   722 does not exist.
 End of G2Drv F.D. properties file   788 does not exist.
          IDoAtm=11111
          Differentiating once with respect to electric field.
                with respect to dipole field.
          Differentiating once with respect to nuclear coordinates.
 Keep R1 ints in memory in canonical form, NReq=49929014.
          There are    18 degrees of freedom in the 1st order CPHF.  IDoFFX=6 NUNeed=    18.
     15 vectors produced by pass  0 Test12= 1.36D-14 5.56D-09 XBig12= 1.36D+01 1.83D+00.
 AX will form    15 AO Fock derivatives at one time.
     15 vectors produced by pass  1 Test12= 1.36D-14 5.56D-09 XBig12= 1.44D+00 3.27D-01.
     15 vectors produced by pass  2 Test12= 1.36D-14 5.56D-09 XBig12= 4.87D-02 5.38D-02.
     15 vectors produced by pass  3 Test12= 1.36D-14 5.56D-09 XBig12= 1.64D-03 1.17D-02.
     15 vectors produced by pass  4 Test12= 1.36D-14 5.56D-09 XBig12= 2.23D-05 9.23D-04.
     15 vectors produced by pass  5 Test12= 1.36D-14 5.56D-09 XBig12= 1.35D-07 6.06D-05.
     12 vectors produced by pass  6 Test12= 1.36D-14 5.56D-09 XBig12= 5.95D-10 5.19D-06.
      5 vectors produced by pass  7 Test12= 1.36D-14 5.56D-09 XBig12= 2.19D-12 2.93D-07.
      2 vectors produced by pass  8 Test12= 1.36D-14 5.56D-09 XBig12= 8.10D-15 2.17D-08.
 InvSVY:  IOpt=1 It=  1 EMax= 1.11D-15
 Solved reduced A of dimension   109 with    15 vectors.
 End of Minotr F.D. properties file   721 does not exist.
 End of Minotr F.D. properties file   722 does not exist.
 End of Minotr F.D. properties file   788 does not exist.
 MDV=   104857600.
 DoSCS=T DFT=T ScalE2(SS,OS)=  0.270000  0.270000
 Form MO integral derivatives with frozen-active canonical formalism.
 Discarding MO integrals.
 Reordered first order wavefunction length =     12073698
 In DefCFB: NBatch=  1 ICI= 21 ICA=117 LFMax= 30
            Large arrays: LIAPS=   215645976 LIARS=   106650999 words.
 Semi-Direct transformation.
 ModeAB=           2 MOrb=            21 LenV=     104182496
 LASXX=     24673236 LTotXX=    24673236 LenRXX=    24673236
 LTotAB=    25213041 MaxLAS=    36862560 LenRXY=    36862560
 NonZer=    49346472 LenScr=    74764800 LnRSAI=           0
 LnScr1=           0 LExtra=           0 Total=    136300596
 MaxDsk=          -1 SrtSym=           F ITran=            4
 JobTyp=0 Pass  1:  I=   1 to  21.
 (rs|ai) integrals will be sorted in core.
 SymMOI:  orbitals are not symmetric.
 DoSCS=T DFT=T ScalE2(SS,OS)=  0.270000  0.270000
 Spin components of T(2) and E(2):
     alpha-alpha T2 =       0.4186554528D-01 E2=     -0.3601080203D-01
     alpha-beta  T2 =       0.2220612840D+00 E2=     -0.2028022019D+00
     beta-beta   T2 =       0.4186554528D-01 E2=     -0.3601080203D-01
 E2(B2PLYP) =    -0.2748238060D+00 E(B2PLYP) =    -0.69843403813036D+03
          IDoAtm=11111
          Differentiating once with respect to electric field.
                with respect to dipole field.
          Differentiating once with respect to nuclear coordinates.
 Keep R1 ints in memory in canonical form, NReq=49941574.
          There are     1 degrees of freedom in the 1st order CPHF.  IDoFFX=0 NUNeed=     1.
 LinEq1:  Iter=  0 NonCon=     1 RMS=1.83D-03 Max=3.23D-02 NDo=     1
 AX will form     1 AO Fock derivatives at one time.
 LinEq1:  Iter=  1 NonCon=     1 RMS=7.20D-04 Max=1.02D-02 NDo=     1
 LinEq1:  Iter=  2 NonCon=     1 RMS=2.03D-04 Max=3.52D-03 NDo=     1
 LinEq1:  Iter=  3 NonCon=     1 RMS=7.64D-05 Max=1.34D-03 NDo=     1
 LinEq1:  Iter=  4 NonCon=     1 RMS=1.86D-05 Max=3.87D-04 NDo=     1
 LinEq1:  Iter=  5 NonCon=     1 RMS=6.27D-06 Max=8.57D-05 NDo=     1
 LinEq1:  Iter=  6 NonCon=     1 RMS=1.91D-06 Max=2.42D-05 NDo=     1
 LinEq1:  Iter=  7 NonCon=     1 RMS=6.40D-07 Max=7.53D-06 NDo=     1
 LinEq1:  Iter=  8 NonCon=     1 RMS=1.19D-07 Max=1.50D-06 NDo=     1
 LinEq1:  Iter=  9 NonCon=     1 RMS=2.32D-08 Max=2.04D-07 NDo=     1
 LinEq1:  Iter= 10 NonCon=     1 RMS=4.41D-09 Max=6.45D-08 NDo=     1
 LinEq1:  Iter= 11 NonCon=     1 RMS=1.56D-09 Max=2.09D-08 NDo=     1
 LinEq1:  Iter= 12 NonCon=     1 RMS=7.20D-10 Max=1.16D-08 NDo=     1
 LinEq1:  Iter= 13 NonCon=     1 RMS=2.13D-10 Max=3.67D-09 NDo=     1
 LinEq1:  Iter= 14 NonCon=     0 RMS=4.47D-11 Max=6.32D-10 NDo=     1
 Linear equations converged to 1.000D-10 1.000D-09 after    14 iterations.
 End of Minotr F.D. properties file   721 does not exist.
 End of Minotr F.D. properties file   722 does not exist.
 End of Minotr F.D. properties file   788 does not exist.
 Symmetrizing basis deriv contribution to polar:
 IMax=3 JMax=2 DiffMx= 0.00D+00
 G2DrvN: will do     6 centers at a time, making    1 passes.
 Calling FoFCou, ICntrl=  3107 FMM=F I1Cent=   0 AccDes= 0.00D+00.
 End of G2Drv F.D. properties file   721 does not exist.
 End of G2Drv F.D. properties file   722 does not exist.
 End of G2Drv F.D. properties file   788 does not exist.
 DoSCS=T DFT=T ScalE2(SS,OS)=  0.270000  0.270000
 Would need an additional    59002050 words for in-memory AO integral storage.
 DD1Dir will call FoFJK  16 times, MxPair=        42
 NAB=   231 NAA=   210 NBB=     0 NumPrc=  4.
 FoFJK:  IHMeth= 1 ICntrl=     200 DoSepK=F KAlg= 0 I1Cent=           0 FoldK=F
 IRaf= 990000000 NMat=      42 IRICut=      52 DoRegI=T DoRafI=T ISym2E= 2 IDoP0=3 IntGTp=3.
 FoFCou: FMM=F IPFlag=           0 FMFlag=           0 FMFlg1=           0
         NFxFlg=           0 DoJE=F BraDBF=F KetDBF=F FulRan=T
         wScrn=  0.000000 ICntrl=       200 IOpCl=  0 I1Cent=           0 NGrid=           0
         NMat0=   42 NMatS0=      0 NMatT0=   21 NMatD0=   42 NMtDS0=    0 NMtDT0=    0
 Integrals replicated using symmetry in FoFCou.
 Raff kept on since  68.96% of shell-pairs survive, threshold=   0.20 IRatSp=69.
 Discarding MO integrals.
 Calling FoFJK, ICntrl=  10100127 FMM=F ISym2X=0 I1Cent= 0 IOpClX= 0 NMat=1 NMatS=1 NMatT=0.
 ***** Axes restored to original set *****
 -------------------------------------------------------------------
 Center     Atomic                   Forces (Hartrees/Bohr)
 Number     Number              X              Y              Z
 -------------------------------------------------------------------
      1        6           0.000005708   -0.000417947   -0.000303693
      2        9           0.000019465    0.000012111    0.000589059
      3       17           0.000268082   -0.000003936   -0.000081373
      4        9          -0.000271849    0.000558790   -0.000171877
      5        1          -0.000021406   -0.000149017   -0.000032116
 -------------------------------------------------------------------
 Cartesian Forces:  Max     0.000589059 RMS     0.000274754
 -----------------------------------------------------------------------------------------------
                       Internal Coordinate Forces (Hartree/Bohr or radian)
  Cent   Atom   N1       Length/X         N2         Alpha/Y        N3         Beta/Z          J
 -----------------------------------------------------------------------------------------------
      1  C 
      2  F        1   0.000589(     1)
      3  Cl       1   0.000280(     2)      2  -0.000045(     5)
      4  F        1   0.000643(     3)      2  -0.000081(     6)      3   0.000096(     8)     0
      5  H        1   0.000142(     4)      2  -0.000037(     7)      3  -0.000107(     9)     0
 -----------------------------------------------------------------------------------------------
 Internal  Forces:  Max     0.000642704 RMS     0.000314341

 GradGradGradGradGradGradGradGradGradGradGradGradGradGradGradGradGradGrad
 Berny optimization.
 Search for a local minimum.
 Step number   2 out of a maximum of   20
 All quantities printed in internal units (Hartrees-Bohrs-Radians)
 Second derivative matrix not updated -- analytic derivatives used.
 DE= -5.05D-04 DEPred=-5.17D-04 R= 9.77D-01
 TightC=F SS=  1.41D+00  RLast= 6.83D-02 DXNew= 5.0454D-01 2.0490D-01
 Trust test= 9.77D-01 RLast= 6.83D-02 DXMaxT set to 3.00D-01
 The second derivative matrix:
                          r2        r3        a3        r4        a4
           r2           0.40157
           r3           0.04168   0.21172
           a3           0.06056   0.00233   0.38460
           r4           0.05321   0.04169  -0.03124   0.40165
           a4           0.07179  -0.02843   0.10072   0.00611   0.46950
           d4           0.00426  -0.04780   0.06687   0.00967   0.02032
           r5           0.01273   0.00559  -0.00131   0.01275  -0.00307
           a5           0.07030  -0.02739   0.06461  -0.03263   0.07527
           d5          -0.00207   0.04399  -0.04000  -0.05859   0.05422
                          d4        r5        a5        d5
           d4           0.34900
           r5           0.00794   0.35333
           a5          -0.04859   0.00362   0.27539
           d5          -0.13434  -0.00585   0.00931   0.23296
 ITU=  1  0
     Eigenvalues ---    0.11350   0.15027   0.25095   0.27464   0.34702
     Eigenvalues ---    0.35836   0.45939   0.49570   0.62989
 RFO step:  Lambda=-1.12616315D-06 EMin= 1.13499403D-01
 Quintic linear search produced a step of -0.02879.
 Variable       Old X    -DE/DX   Delta X   Delta X   Delta X     New X
                                 (Linear)    (Quad)   (Total)
    r2        2.52969   0.00059   0.00091   0.00039   0.00130   2.53099
    r3        3.35555   0.00028  -0.00082   0.00174   0.00093   3.35648
    a3        1.91369  -0.00005   0.00022  -0.00045  -0.00022   1.91347
    r4        2.52966   0.00064   0.00090   0.00042   0.00132   2.53098
    a4        1.89099  -0.00008  -0.00067   0.00038  -0.00028   1.89070
    d4        4.19530   0.00010  -0.00014   0.00052   0.00038   4.19569
    r5        2.04871   0.00014   0.00049  -0.00020   0.00028   2.04899
    a5        1.92208  -0.00004  -0.00034   0.00032  -0.00002   1.92206
    d5        2.09271  -0.00011   0.00083  -0.00091  -0.00007   2.09263
         Item               Value     Threshold  Converged?
 Maximum Force            0.000643     0.000002     NO 
 RMS     Force            0.000314     0.000001     NO 
 Maximum Displacement     0.001321     0.000006     NO 
 RMS     Displacement     0.000719     0.000004     NO 
 Predicted change in Energy=-9.722815D-07
 GradGradGradGradGradGradGradGradGradGradGradGradGradGradGradGradGradGrad

 ---------------------------------------------------------------------------------------------------
                            Z-MATRIX (ANGSTROMS AND DEGREES)
   CD    Cent   Atom    N1       Length/X        N2       Alpha/Y        N3        Beta/Z          J
 ---------------------------------------------------------------------------------------------------
      1      1  C 
      2      2  F        1   1.339341(     1)
      3      3  Cl       1   1.776170(     2)      2  109.634(     5)
      4      4  F        1   1.339340(     3)      2  108.329(     6)      3  240.395(     8)      0
      5      5  H        1   1.084279(     4)      2  110.126(     7)      3  119.899(     9)      0
 ---------------------------------------------------------------------------------------------------
                         Z-Matrix orientation:                         
 ---------------------------------------------------------------------
 Center     Atomic      Atomic             Coordinates (Angstroms)
 Number     Number       Type             X           Y           Z
 ---------------------------------------------------------------------
      1          6           0        0.000000    0.000000    0.000000
      2          9           0        0.000000    0.000000    1.339341
      3         17           0        1.672904    0.000000   -0.596801
      4          9           0       -0.628087    1.105411   -0.421194
      5          1           0       -0.507480   -0.882571   -0.373087
 ---------------------------------------------------------------------
                    Distance matrix (angstroms):
                    1          2          3          4          5
     1  C    0.000000
     2  F    1.339341   0.000000
     3  Cl   1.776170   2.558761   0.000000
     4  F    1.339340   2.171615   2.558775   0.000000
     5  H    1.084279   1.992205   2.362849   1.992217   0.000000
 Stoichiometry    CHClF2
 Framework group  C1[X(CHClF2)]
 Deg. of freedom     9
 Full point group                 C1      NOp   1
 Largest Abelian subgroup         C1      NOp   1
 Largest concise Abelian subgroup C1      NOp   1
                         Standard orientation:                         
 ---------------------------------------------------------------------
 Center     Atomic      Atomic             Coordinates (Angstroms)
 Number     Number       Type             X           Y           Z
 ---------------------------------------------------------------------
      1          6           0       -0.444654   -0.000002    0.364889
      2          9           0       -1.032365    1.085814   -0.154182
      3         17           0        1.282262   -0.000007   -0.050490
      4          9           0       -1.032393   -1.085801   -0.154182
      5          1           0       -0.547704    0.000012    1.444261
 ---------------------------------------------------------------------
 Rotational constants (GHZ):          10.2217908           4.7984173           3.4739810
 Standard basis: CC-pVTZ (5D, 7F)
 There are   159 symmetry adapted cartesian basis functions of A   symmetry.
 There are   138 symmetry adapted basis functions of A   symmetry.
   138 basis functions,   267 primitive gaussians,   159 cartesian basis functions
    21 alpha electrons       21 beta electrons
       nuclear repulsion energy       167.5985750346 Hartrees.
 NAtoms=    5 NActive=    5 NUniq=    5 SFac= 1.00D+00 NAtFMM=   60 NAOKFM=F Big=F
 Integral buffers will be    131072 words long.
 Regular integral format.
 Two-electron integral symmetry is turned on.
 One-electron integrals computed using PRISM.
 NBasis=   138 RedAO= T EigKep=  1.87D-03  NBF=   138
 NBsUse=   138 1.00D-06 EigRej= -1.00D+00 NBFU=   138
 Initial guess from the checkpoint file:  "checkpoint.chk"
 B after Tr=     0.000000   -0.000000    0.000000
         Rot=    1.000000    0.000018   -0.000013    0.000039 Ang=   0.01 deg.
 Keep R1 ints in memory in canonical form, NReq=49938100.
 Requested convergence on RMS density matrix=1.00D-08 within 128 cycles.
 Requested convergence on MAX density matrix=1.00D-06.
 Requested convergence on             energy=1.00D-06.
 No special actions if energy rises.
 SCF Done:  E(RB2PLYP) =  -698.159179591     A.U. after    6 cycles
            NFock=  6  Conv=0.74D-08     -V/T= 2.0023
 DoSCS=T DFT=T ScalE2(SS,OS)=  0.270000  0.270000
 ExpMin= 1.03D-01 ExpMax= 4.56D+05 ExpMxC= 1.44D+03 IAcc=3 IRadAn=         5 AccDes= 0.00D+00
 HarFok:  IExCor=  205 AccDes= 0.00D+00 IRadAn=         5 IDoV=-2 UseB2=F ITyADJ=14
 ICtDFT= 12500011 ScaDFX=  1.000000  1.000000  1.000000  1.000000
 Range of M.O.s used for correlation:     9   138
 NBasis=   138 NAE=    21 NBE=    21 NFC=     8 NFV=     0
 NROrb=    130 NOA=    13 NOB=    13 NVA=   117 NVB=   117
 DoSCS=T DFT=T ScalE2(SS,OS)=  0.270000  0.270000
 Disk-based method using ON**2 memory for 13 occupieds at a time.
 Permanent disk used for amplitudes=     7461909 words.
 Estimated scratch disk usage=    96543444 words.
 Actual    scratch disk usage=    93434580 words.
 GetIJB would need an additional    21614771 words of memory to use all   4 processors.
 JobTyp=1 Pass  1:  I=   9 to  21 NPSUse=  3 ParTrn=F ParDer=T DoDerP=T.
 Spin components of T(2) and E(2):
     alpha-alpha T2 =       0.4188384180D-01 E2=     -0.3601392619D-01
     alpha-beta  T2 =       0.2221817855D+00 E2=     -0.2028316687D+00
     beta-beta   T2 =       0.4188384180D-01 E2=     -0.3601392619D-01
 E2(B2PLYP) =    -0.2748595211D+00 E(B2PLYP) =    -0.69843403911201D+03
 G2DrvN: will do     6 centers at a time, making    1 passes.
 Calling FoFCou, ICntrl=  3107 FMM=F I1Cent=   0 AccDes= 0.00D+00.
 End of G2Drv F.D. properties file   721 does not exist.
 End of G2Drv F.D. properties file   722 does not exist.
 End of G2Drv F.D. properties file   788 does not exist.
          IDoAtm=11111
          Differentiating once with respect to electric field.
                with respect to dipole field.
          Differentiating once with respect to nuclear coordinates.
 Keep R1 ints in memory in canonical form, NReq=49929014.
          There are    18 degrees of freedom in the 1st order CPHF.  IDoFFX=6 NUNeed=    18.
     15 vectors produced by pass  0 Test12= 1.36D-14 5.56D-09 XBig12= 1.36D+01 1.84D+00.
 AX will form    15 AO Fock derivatives at one time.
     15 vectors produced by pass  1 Test12= 1.36D-14 5.56D-09 XBig12= 1.45D+00 3.27D-01.
     15 vectors produced by pass  2 Test12= 1.36D-14 5.56D-09 XBig12= 4.89D-02 5.39D-02.
     15 vectors produced by pass  3 Test12= 1.36D-14 5.56D-09 XBig12= 1.65D-03 1.18D-02.
     15 vectors produced by pass  4 Test12= 1.36D-14 5.56D-09 XBig12= 2.24D-05 9.24D-04.
     15 vectors produced by pass  5 Test12= 1.36D-14 5.56D-09 XBig12= 1.36D-07 6.06D-05.
     12 vectors produced by pass  6 Test12= 1.36D-14 5.56D-09 XBig12= 5.98D-10 5.20D-06.
      5 vectors produced by pass  7 Test12= 1.36D-14 5.56D-09 XBig12= 2.20D-12 2.93D-07.
      2 vectors produced by pass  8 Test12= 1.36D-14 5.56D-09 XBig12= 8.14D-15 2.18D-08.
 InvSVY:  IOpt=1 It=  1 EMax= 1.11D-15
 Solved reduced A of dimension   109 with    15 vectors.
 End of Minotr F.D. properties file   721 does not exist.
 End of Minotr F.D. properties file   722 does not exist.
 End of Minotr F.D. properties file   788 does not exist.
 MDV=   104857600.
 DoSCS=T DFT=T ScalE2(SS,OS)=  0.270000  0.270000
 Form MO integral derivatives with frozen-active canonical formalism.
 Discarding MO integrals.
 Reordered first order wavefunction length =     12073698
 In DefCFB: NBatch=  1 ICI= 21 ICA=117 LFMax= 30
            Large arrays: LIAPS=   215645976 LIARS=   106650999 words.
 Semi-Direct transformation.
 ModeAB=           2 MOrb=            21 LenV=     104182496
 LASXX=     24673236 LTotXX=    24673236 LenRXX=    24673236
 LTotAB=    25213041 MaxLAS=    36862560 LenRXY=    36862560
 NonZer=    49346472 LenScr=    74764800 LnRSAI=           0
 LnScr1=           0 LExtra=           0 Total=    136300596
 MaxDsk=          -1 SrtSym=           F ITran=            4
 JobTyp=0 Pass  1:  I=   1 to  21.
 (rs|ai) integrals will be sorted in core.
 SymMOI:  orbitals are not symmetric.
 DoSCS=T DFT=T ScalE2(SS,OS)=  0.270000  0.270000
 Spin components of T(2) and E(2):
     alpha-alpha T2 =       0.4188384180D-01 E2=     -0.3601392619D-01
     alpha-beta  T2 =       0.2221817855D+00 E2=     -0.2028316687D+00
     beta-beta   T2 =       0.4188384180D-01 E2=     -0.3601392619D-01
 E2(B2PLYP) =    -0.2748595211D+00 E(B2PLYP) =    -0.69843403911201D+03
          IDoAtm=11111
          Differentiating once with respect to electric field.
                with respect to dipole field.
          Differentiating once with respect to nuclear coordinates.
 Keep R1 ints in memory in canonical form, NReq=49941574.
          There are     1 degrees of freedom in the 1st order CPHF.  IDoFFX=0 NUNeed=     1.
 LinEq1:  Iter=  0 NonCon=     1 RMS=1.83D-03 Max=3.24D-02 NDo=     1
 AX will form     1 AO Fock derivatives at one time.
 LinEq1:  Iter=  1 NonCon=     1 RMS=7.21D-04 Max=1.02D-02 NDo=     1
 LinEq1:  Iter=  2 NonCon=     1 RMS=2.04D-04 Max=3.53D-03 NDo=     1
 LinEq1:  Iter=  3 NonCon=     1 RMS=7.66D-05 Max=1.35D-03 NDo=     1
 LinEq1:  Iter=  4 NonCon=     1 RMS=1.87D-05 Max=3.89D-04 NDo=     1
 LinEq1:  Iter=  5 NonCon=     1 RMS=6.29D-06 Max=8.62D-05 NDo=     1
 LinEq1:  Iter=  6 NonCon=     1 RMS=1.92D-06 Max=2.43D-05 NDo=     1
 LinEq1:  Iter=  7 NonCon=     1 RMS=6.42D-07 Max=7.54D-06 NDo=     1
 LinEq1:  Iter=  8 NonCon=     1 RMS=1.19D-07 Max=1.50D-06 NDo=     1
 LinEq1:  Iter=  9 NonCon=     1 RMS=2.32D-08 Max=2.04D-07 NDo=     1
 LinEq1:  Iter= 10 NonCon=     1 RMS=4.25D-09 Max=6.43D-08 NDo=     1
 LinEq1:  Iter= 11 NonCon=     1 RMS=9.63D-10 Max=1.81D-08 NDo=     1
 LinEq1:  Iter= 12 NonCon=     1 RMS=2.45D-10 Max=3.86D-09 NDo=     1
 LinEq1:  Iter= 13 NonCon=     0 RMS=4.19D-11 Max=4.42D-10 NDo=     1
 Linear equations converged to 1.000D-10 1.000D-09 after    13 iterations.
 End of Minotr F.D. properties file   721 does not exist.
 End of Minotr F.D. properties file   722 does not exist.
 End of Minotr F.D. properties file   788 does not exist.
 Symmetrizing basis deriv contribution to polar:
 IMax=3 JMax=2 DiffMx= 0.00D+00
 G2DrvN: will do     6 centers at a time, making    1 passes.
 Calling FoFCou, ICntrl=  3107 FMM=F I1Cent=   0 AccDes= 0.00D+00.
 End of G2Drv F.D. properties file   721 does not exist.
 End of G2Drv F.D. properties file   722 does not exist.
 End of G2Drv F.D. properties file   788 does not exist.
 DoSCS=T DFT=T ScalE2(SS,OS)=  0.270000  0.270000
 Would need an additional    59002050 words for in-memory AO integral storage.
 DD1Dir will call FoFJK  16 times, MxPair=        42
 NAB=   231 NAA=   210 NBB=     0 NumPrc=  4.
 FoFJK:  IHMeth= 1 ICntrl=     200 DoSepK=F KAlg= 0 I1Cent=           0 FoldK=F
 IRaf= 990000000 NMat=      42 IRICut=      52 DoRegI=T DoRafI=T ISym2E= 2 IDoP0=3 IntGTp=3.
 FoFCou: FMM=F IPFlag=           0 FMFlag=           0 FMFlg1=           0
         NFxFlg=           0 DoJE=F BraDBF=F KetDBF=F FulRan=T
         wScrn=  0.000000 ICntrl=       200 IOpCl=  0 I1Cent=           0 NGrid=           0
         NMat0=   42 NMatS0=      0 NMatT0=   21 NMatD0=   42 NMtDS0=    0 NMtDT0=    0
 Integrals replicated using symmetry in FoFCou.
 Raff kept on since  68.96% of shell-pairs survive, threshold=   0.20 IRatSp=69.
 Discarding MO integrals.
 Calling FoFJK, ICntrl=  10100127 FMM=F ISym2X=0 I1Cent= 0 IOpClX= 0 NMat=1 NMatS=1 NMatT=0.
 ***** Axes restored to original set *****
 -------------------------------------------------------------------
 Center     Atomic                   Forces (Hartrees/Bohr)
 Number     Number              X              Y              Z
 -------------------------------------------------------------------
      1        6           0.000015450    0.000004874    0.000001027
      2        9          -0.000003020    0.000001389   -0.000009848
      3       17          -0.000012621    0.000001168    0.000003588
      4        9           0.000003882   -0.000010055    0.000004435
      5        1          -0.000003692    0.000002625    0.000000798
 -------------------------------------------------------------------
 Cartesian Forces:  Max     0.000015450 RMS     0.000006841
 -----------------------------------------------------------------------------------------------
                       Internal Coordinate Forces (Hartree/Bohr or radian)
  Cent   Atom   N1       Length/X         N2         Alpha/Y        N3         Beta/Z          J
 -----------------------------------------------------------------------------------------------
      1  C 
      2  F        1  -0.000010(     1)
      3  Cl       1  -0.000013(     2)      2   0.000003(     5)
      4  F        1  -0.000012(     3)      2  -0.000002(     6)      3  -0.000004(     8)     0
      5  H        1  -0.000001(     4)      2  -0.000001(     7)      3   0.000009(     9)     0
 -----------------------------------------------------------------------------------------------
 Internal  Forces:  Max     0.000013092 RMS     0.000007497

 GradGradGradGradGradGradGradGradGradGradGradGradGradGradGradGradGradGrad
 Berny optimization.
 Search for a local minimum.
 Step number   3 out of a maximum of   20
 All quantities printed in internal units (Hartrees-Bohrs-Radians)
 Second derivative matrix not updated -- analytic derivatives used.
 DE= -9.82D-07 DEPred=-9.72D-07 R= 1.01D+00
 Trust test= 1.01D+00 RLast= 2.16D-03 DXMaxT set to 3.00D-01
 The second derivative matrix:
                          r2        r3        a3        r4        a4
           r2           0.39971
           r3           0.04160   0.21111
           a3           0.06046   0.00234   0.38407
           r4           0.05307   0.04159  -0.03115   0.39971
           a4           0.07161  -0.02834   0.10051   0.00612   0.46868
           d4           0.00425  -0.04769   0.06674   0.00959   0.02027
           r5           0.01267   0.00556  -0.00130   0.01267  -0.00304
           a5           0.07019  -0.02734   0.06455  -0.03254   0.07511
           d5          -0.00207   0.04394  -0.03997  -0.05843   0.05412
                          d4        r5        a5        d5
           d4           0.34848
           r5           0.00788   0.35306
           a5          -0.04850   0.00362   0.27499
           d5          -0.13407  -0.00581   0.00929   0.23261
 ITU=  0  1  0
     Eigenvalues ---    0.11330   0.14987   0.25042   0.27388   0.34656
     Eigenvalues ---    0.35754   0.45765   0.49462   0.62857
 RFO step:  Lambda= 0.00000000D+00 EMin= 1.13304078D-01
 Quintic linear search produced a step of -0.02086.
 Variable       Old X    -DE/DX   Delta X   Delta X   Delta X     New X
                                 (Linear)    (Quad)   (Total)
    r2        2.53099  -0.00001  -0.00003   0.00001  -0.00001   2.53097
    r3        3.35648  -0.00001  -0.00002  -0.00005  -0.00007   3.35640
    a3        1.91347   0.00000   0.00000   0.00002   0.00002   1.91349
    r4        2.53098  -0.00001  -0.00003   0.00002  -0.00001   2.53097
    a4        1.89070  -0.00000   0.00001  -0.00002  -0.00002   1.89069
    d4        4.19569  -0.00000  -0.00001   0.00000  -0.00001   4.19568
    r5        2.04899  -0.00000  -0.00001   0.00001   0.00000   2.04899
    a5        1.92206  -0.00000   0.00000  -0.00001  -0.00001   1.92205
    d5        2.09263   0.00001   0.00000   0.00005   0.00005   2.09269
         Item               Value     Threshold  Converged?
 Maximum Force            0.000013     0.000002     NO 
 RMS     Force            0.000007     0.000001     NO 
 Maximum Displacement     0.000074     0.000006     NO 
 RMS     Displacement     0.000032     0.000004     NO 
 Predicted change in Energy=-9.068559D-10
 GradGradGradGradGradGradGradGradGradGradGradGradGradGradGradGradGradGrad

 ---------------------------------------------------------------------------------------------------
                            Z-MATRIX (ANGSTROMS AND DEGREES)
   CD    Cent   Atom    N1       Length/X        N2       Alpha/Y        N3        Beta/Z          J
 ---------------------------------------------------------------------------------------------------
      1      1  C 
      2      2  F        1   1.339334(     1)
      3      3  Cl       1   1.776131(     2)      2  109.635(     5)
      4      4  F        1   1.339334(     3)      2  108.328(     6)      3  240.395(     8)      0
      5      5  H        1   1.084280(     4)      2  110.125(     7)      3  119.902(     9)      0
 ---------------------------------------------------------------------------------------------------
                         Z-Matrix orientation:                         
 ---------------------------------------------------------------------
 Center     Atomic      Atomic             Coordinates (Angstroms)
 Number     Number       Type             X           Y           Z
 ---------------------------------------------------------------------
      1          6           0        0.000000    0.000000    0.000000
      2          9           0        0.000000    0.000000    1.339334
      3         17           0        1.672854    0.000000   -0.596825
      4          9           0       -0.628093    1.105408   -0.421173
      5          1           0       -0.507530   -0.882549   -0.373074
 ---------------------------------------------------------------------
                    Distance matrix (angstroms):
                    1          2          3          4          5
     1  C    0.000000
     2  F    1.339334   0.000000
     3  Cl   1.776131   2.558741   0.000000
     4  F    1.339334   2.171593   2.558738   0.000000
     5  H    1.084280   1.992190   2.362844   1.992190   0.000000
 Stoichiometry    CHClF2
 Framework group  C1[X(CHClF2)]
 Deg. of freedom     9
 Full point group                 C1      NOp   1
 Largest Abelian subgroup         C1      NOp   1
 Largest concise Abelian subgroup C1      NOp   1
                         Standard orientation:                         
 ---------------------------------------------------------------------
 Center     Atomic      Atomic             Coordinates (Angstroms)
 Number     Number       Type             X           Y           Z
 ---------------------------------------------------------------------
      1          6           0       -0.444632    0.000000    0.364884
      2          9           0       -1.032372    1.085795   -0.154180
      3         17           0        1.282245    0.000001   -0.050490
      4          9           0       -1.032367   -1.085798   -0.154179
      5          1           0       -0.547722    0.000000    1.444252
 ---------------------------------------------------------------------
 Rotational constants (GHZ):          10.2220009           4.7985334           3.4740617
 Standard basis: CC-pVTZ (5D, 7F)
 There are   159 symmetry adapted cartesian basis functions of A   symmetry.
 There are   138 symmetry adapted basis functions of A   symmetry.
   138 basis functions,   267 primitive gaussians,   159 cartesian basis functions
    21 alpha electrons       21 beta electrons
       nuclear repulsion energy       167.6004071718 Hartrees.
 NAtoms=    5 NActive=    5 NUniq=    5 SFac= 1.00D+00 NAtFMM=   60 NAOKFM=F Big=F
 Integral buffers will be    131072 words long.
 Regular integral format.
 Two-electron integral symmetry is turned on.
 One-electron integrals computed using PRISM.
 NBasis=   138 RedAO= T EigKep=  1.87D-03  NBF=   138
 NBsUse=   138 1.00D-06 EigRej= -1.00D+00 NBFU=   138
 Initial guess from the checkpoint file:  "checkpoint.chk"
 B after Tr=     0.000000    0.000000   -0.000000
         Rot=    1.000000    0.000000   -0.000000   -0.000005 Ang=   0.00 deg.
 Keep R1 ints in memory in canonical form, NReq=49938100.
 Requested convergence on RMS density matrix=1.00D-08 within 128 cycles.
 Requested convergence on MAX density matrix=1.00D-06.
 Requested convergence on             energy=1.00D-06.
 No special actions if energy rises.
 SCF Done:  E(RB2PLYP) =  -698.159180246     A.U. after    4 cycles
            NFock=  4  Conv=0.44D-08     -V/T= 2.0023
 DoSCS=T DFT=T ScalE2(SS,OS)=  0.270000  0.270000
 ExpMin= 1.03D-01 ExpMax= 4.56D+05 ExpMxC= 1.44D+03 IAcc=3 IRadAn=         5 AccDes= 0.00D+00
 HarFok:  IExCor=  205 AccDes= 0.00D+00 IRadAn=         5 IDoV=-2 UseB2=F ITyADJ=14
 ICtDFT= 12500011 ScaDFX=  1.000000  1.000000  1.000000  1.000000
 Range of M.O.s used for correlation:     9   138
 NBasis=   138 NAE=    21 NBE=    21 NFC=     8 NFV=     0
 NROrb=    130 NOA=    13 NOB=    13 NVA=   117 NVB=   117
 DoSCS=T DFT=T ScalE2(SS,OS)=  0.270000  0.270000
 Disk-based method using ON**2 memory for 13 occupieds at a time.
 Permanent disk used for amplitudes=     7461909 words.
 Estimated scratch disk usage=    96543444 words.
 Actual    scratch disk usage=    93434580 words.
 GetIJB would need an additional    21614771 words of memory to use all   4 processors.
 JobTyp=1 Pass  1:  I=   9 to  21 NPSUse=  3 ParTrn=F ParDer=T DoDerP=T.
 Spin components of T(2) and E(2):
     alpha-alpha T2 =       0.4188345091D-01 E2=     -0.3601388036D-01
     alpha-beta  T2 =       0.2221788908D+00 E2=     -0.2028310966D+00
     beta-beta   T2 =       0.4188345091D-01 E2=     -0.3601388036D-01
 E2(B2PLYP) =    -0.2748588574D+00 E(B2PLYP) =    -0.69843403910347D+03
 G2DrvN: will do     6 centers at a time, making    1 passes.
 Calling FoFCou, ICntrl=  3107 FMM=F I1Cent=   0 AccDes= 0.00D+00.
 End of G2Drv F.D. properties file   721 does not exist.
 End of G2Drv F.D. properties file   722 does not exist.
 End of G2Drv F.D. properties file   788 does not exist.
          IDoAtm=11111
          Differentiating once with respect to electric field.
                with respect to dipole field.
          Differentiating once with respect to nuclear coordinates.
 Keep R1 ints in memory in canonical form, NReq=49929014.
          There are    18 degrees of freedom in the 1st order CPHF.  IDoFFX=6 NUNeed=    18.
     15 vectors produced by pass  0 Test12= 1.36D-14 5.56D-09 XBig12= 1.36D+01 1.84D+00.
 AX will form    15 AO Fock derivatives at one time.
     15 vectors produced by pass  1 Test12= 1.36D-14 5.56D-09 XBig12= 1.45D+00 3.27D-01.
     15 vectors produced by pass  2 Test12= 1.36D-14 5.56D-09 XBig12= 4.88D-02 5.39D-02.
     15 vectors produced by pass  3 Test12= 1.36D-14 5.56D-09 XBig12= 1.65D-03 1.18D-02.
     15 vectors produced by pass  4 Test12= 1.36D-14 5.56D-09 XBig12= 2.24D-05 9.24D-04.
     15 vectors produced by pass  5 Test12= 1.36D-14 5.56D-09 XBig12= 1.36D-07 6.06D-05.
     12 vectors produced by pass  6 Test12= 1.36D-14 5.56D-09 XBig12= 5.98D-10 5.20D-06.
      5 vectors produced by pass  7 Test12= 1.36D-14 5.56D-09 XBig12= 2.20D-12 2.93D-07.
      2 vectors produced by pass  8 Test12= 1.36D-14 5.56D-09 XBig12= 8.13D-15 2.18D-08.
 InvSVY:  IOpt=1 It=  1 EMax= 7.77D-16
 Solved reduced A of dimension   109 with    15 vectors.
 End of Minotr F.D. properties file   721 does not exist.
 End of Minotr F.D. properties file   722 does not exist.
 End of Minotr F.D. properties file   788 does not exist.
 MDV=   104857600.
 DoSCS=T DFT=T ScalE2(SS,OS)=  0.270000  0.270000
 Form MO integral derivatives with frozen-active canonical formalism.
 Discarding MO integrals.
 Reordered first order wavefunction length =     12073698
 In DefCFB: NBatch=  1 ICI= 21 ICA=117 LFMax= 30
            Large arrays: LIAPS=   215645976 LIARS=   106650999 words.
 Semi-Direct transformation.
 ModeAB=           2 MOrb=            21 LenV=     104182496
 LASXX=     24673236 LTotXX=    24673236 LenRXX=    24673236
 LTotAB=    25213041 MaxLAS=    36862560 LenRXY=    36862560
 NonZer=    49346472 LenScr=    74764800 LnRSAI=           0
 LnScr1=           0 LExtra=           0 Total=    136300596
 MaxDsk=          -1 SrtSym=           F ITran=            4
 JobTyp=0 Pass  1:  I=   1 to  21.
 (rs|ai) integrals will be sorted in core.
 SymMOI:  orbitals are not symmetric.
 DoSCS=T DFT=T ScalE2(SS,OS)=  0.270000  0.270000
 Spin components of T(2) and E(2):
     alpha-alpha T2 =       0.4188345091D-01 E2=     -0.3601388036D-01
     alpha-beta  T2 =       0.2221788908D+00 E2=     -0.2028310966D+00
     beta-beta   T2 =       0.4188345091D-01 E2=     -0.3601388036D-01
 E2(B2PLYP) =    -0.2748588574D+00 E(B2PLYP) =    -0.69843403910347D+03
          IDoAtm=11111
          Differentiating once with respect to electric field.
                with respect to dipole field.
          Differentiating once with respect to nuclear coordinates.
 Keep R1 ints in memory in canonical form, NReq=49941574.
          There are     1 degrees of freedom in the 1st order CPHF.  IDoFFX=0 NUNeed=     1.
 LinEq1:  Iter=  0 NonCon=     1 RMS=1.83D-03 Max=3.24D-02 NDo=     1
 AX will form     1 AO Fock derivatives at one time.
 LinEq1:  Iter=  1 NonCon=     1 RMS=7.21D-04 Max=1.02D-02 NDo=     1
 LinEq1:  Iter=  2 NonCon=     1 RMS=2.04D-04 Max=3.53D-03 NDo=     1
 LinEq1:  Iter=  3 NonCon=     1 RMS=7.66D-05 Max=1.35D-03 NDo=     1
 LinEq1:  Iter=  4 NonCon=     1 RMS=1.87D-05 Max=3.89D-04 NDo=     1
 LinEq1:  Iter=  5 NonCon=     1 RMS=6.29D-06 Max=8.62D-05 NDo=     1
 LinEq1:  Iter=  6 NonCon=     1 RMS=1.92D-06 Max=2.43D-05 NDo=     1
 LinEq1:  Iter=  7 NonCon=     1 RMS=6.42D-07 Max=7.54D-06 NDo=     1
 LinEq1:  Iter=  8 NonCon=     1 RMS=1.19D-07 Max=1.50D-06 NDo=     1
 LinEq1:  Iter=  9 NonCon=     1 RMS=2.32D-08 Max=2.04D-07 NDo=     1
 LinEq1:  Iter= 10 NonCon=     1 RMS=4.25D-09 Max=6.43D-08 NDo=     1
 LinEq1:  Iter= 11 NonCon=     1 RMS=9.63D-10 Max=1.81D-08 NDo=     1
 LinEq1:  Iter= 12 NonCon=     1 RMS=2.46D-10 Max=3.86D-09 NDo=     1
 LinEq1:  Iter= 13 NonCon=     0 RMS=4.30D-11 Max=4.44D-10 NDo=     1
 Linear equations converged to 1.000D-10 1.000D-09 after    13 iterations.
 End of Minotr F.D. properties file   721 does not exist.
 End of Minotr F.D. properties file   722 does not exist.
 End of Minotr F.D. properties file   788 does not exist.
 Symmetrizing basis deriv contribution to polar:
 IMax=3 JMax=2 DiffMx= 0.00D+00
 G2DrvN: will do     6 centers at a time, making    1 passes.
 Calling FoFCou, ICntrl=  3107 FMM=F I1Cent=   0 AccDes= 0.00D+00.
 End of G2Drv F.D. properties file   721 does not exist.
 End of G2Drv F.D. properties file   722 does not exist.
 End of G2Drv F.D. properties file   788 does not exist.
 DoSCS=T DFT=T ScalE2(SS,OS)=  0.270000  0.270000
 Would need an additional    59002050 words for in-memory AO integral storage.
 DD1Dir will call FoFJK  16 times, MxPair=        42
 NAB=   231 NAA=   210 NBB=     0 NumPrc=  4.
 FoFJK:  IHMeth= 1 ICntrl=     200 DoSepK=F KAlg= 0 I1Cent=           0 FoldK=F
 IRaf= 990000000 NMat=      42 IRICut=      52 DoRegI=T DoRafI=T ISym2E= 2 IDoP0=3 IntGTp=3.
 FoFCou: FMM=F IPFlag=           0 FMFlag=           0 FMFlg1=           0
         NFxFlg=           0 DoJE=F BraDBF=F KetDBF=F FulRan=T
         wScrn=  0.000000 ICntrl=       200 IOpCl=  0 I1Cent=           0 NGrid=           0
         NMat0=   42 NMatS0=      0 NMatT0=   21 NMatD0=   42 NMtDS0=    0 NMtDT0=    0
 Integrals replicated using symmetry in FoFCou.
 Raff kept on since  68.96% of shell-pairs survive, threshold=   0.20 IRatSp=69.
 Discarding MO integrals.
 Calling FoFJK, ICntrl=  10100127 FMM=F ISym2X=0 I1Cent= 0 IOpClX= 0 NMat=1 NMatS=1 NMatT=0.
 ***** Axes restored to original set *****
 -------------------------------------------------------------------
 Center     Atomic                   Forces (Hartrees/Bohr)
 Number     Number              X              Y              Z
 -------------------------------------------------------------------
      1        6          -0.000000332    0.000000232    0.000000075
      2        9           0.000000368    0.000000029   -0.000000096
      3       17           0.000000000   -0.000000358    0.000000056
      4        9          -0.000000027    0.000000104   -0.000000021
      5        1          -0.000000009   -0.000000007   -0.000000013
 -------------------------------------------------------------------
 Cartesian Forces:  Max     0.000000368 RMS     0.000000175
 -----------------------------------------------------------------------------------------------
                       Internal Coordinate Forces (Hartree/Bohr or radian)
  Cent   Atom   N1       Length/X         N2         Alpha/Y        N3         Beta/Z          J
 -----------------------------------------------------------------------------------------------
      1  C 
      2  F        1  -0.000000(     1)
      3  Cl       1  -0.000000(     2)      2  -0.000000(     5)
      4  F        1   0.000000(     3)      2  -0.000000(     6)      3   0.000000(     8)     0
      5  H        1   0.000000(     4)      2   0.000000(     7)      3   0.000000(     9)     0
 -----------------------------------------------------------------------------------------------
 Internal  Forces:  Max     0.000000176 RMS     0.000000080

 GradGradGradGradGradGradGradGradGradGradGradGradGradGradGradGradGradGrad
 Berny optimization.
 Search for a local minimum.
 Step number   4 out of a maximum of   20
 All quantities printed in internal units (Hartrees-Bohrs-Radians)
 Second derivative matrix not updated -- analytic derivatives used.
 DE=  8.54D-09 DEPred=-9.07D-10 R=-9.42D+00
 Trust test=-9.42D+00 RLast= 9.73D-05 DXMaxT set to 1.50D-01
 The second derivative matrix:
                          r2        r3        a3        r4        a4
           r2           0.39974
           r3           0.04160   0.21115
           a3           0.06046   0.00234   0.38408
           r4           0.05307   0.04160  -0.03115   0.39974
           a4           0.07162  -0.02835   0.10052   0.00612   0.46870
           d4           0.00425  -0.04769   0.06674   0.00959   0.02028
           r5           0.01267   0.00556  -0.00130   0.01267  -0.00304
           a5           0.07019  -0.02734   0.06456  -0.03254   0.07511
           d5          -0.00207   0.04394  -0.03997  -0.05844   0.05412
                          d4        r5        a5        d5
           d4           0.34851
           r5           0.00788   0.35305
           a5          -0.04850   0.00362   0.27500
           d5          -0.13408  -0.00581   0.00928   0.23262
 ITU= -1  0  1  0
     Eigenvalues ---    0.11331   0.14990   0.25044   0.27389   0.34657
     Eigenvalues ---    0.35755   0.45768   0.49465   0.62860
 RFO step:  Lambda= 0.00000000D+00 EMin= 1.13308504D-01
 Quintic linear search produced a step of -0.91645.
 Variable       Old X    -DE/DX   Delta X   Delta X   Delta X     New X
                                 (Linear)    (Quad)   (Total)
    r2        2.53097  -0.00000   0.00001  -0.00002  -0.00000   2.53097
    r3        3.35640  -0.00000   0.00007   0.00002   0.00008   3.35649
    a3        1.91349  -0.00000  -0.00002  -0.00001  -0.00003   1.91346
    r4        2.53097   0.00000   0.00001  -0.00003  -0.00002   2.53096
    a4        1.89069  -0.00000   0.00001   0.00001   0.00002   1.89071
    d4        4.19568   0.00000   0.00000  -0.00001  -0.00001   4.19567
    r5        2.04899   0.00000  -0.00000  -0.00000  -0.00000   2.04899
    a5        1.92205   0.00000   0.00001   0.00000   0.00002   1.92207
    d5        2.09269   0.00000  -0.00005  -0.00003  -0.00008   2.09261
         Item               Value     Threshold  Converged?
 Maximum Force            0.000000     0.000002     YES
 RMS     Force            0.000000     0.000001     YES
 Maximum Displacement     0.000085     0.000006     NO 
 RMS     Displacement     0.000041     0.000004     NO 
 Predicted change in Energy=-9.793878D-10
 GradGradGradGradGradGradGradGradGradGradGradGradGradGradGradGradGradGrad

 ---------------------------------------------------------------------------------------------------
                            Z-MATRIX (ANGSTROMS AND DEGREES)
   CD    Cent   Atom    N1       Length/X        N2       Alpha/Y        N3        Beta/Z          J
 ---------------------------------------------------------------------------------------------------
      1      1  C 
      2      2  F        1   1.339332(     1)
      3      3  Cl       1   1.776176(     2)      2  109.633(     5)
      4      4  F        1   1.339326(     3)      2  108.330(     6)      3  240.394(     8)      0
      5      5  H        1   1.084279(     4)      2  110.126(     7)      3  119.898(     9)      0
 ---------------------------------------------------------------------------------------------------
                         Z-Matrix orientation:                         
 ---------------------------------------------------------------------
 Center     Atomic      Atomic             Coordinates (Angstroms)
 Number     Number       Type             X           Y           Z
 ---------------------------------------------------------------------
      1          6           0        0.000000    0.000000    0.000000
      2          9           0        0.000000    0.000000    1.339332
      3         17           0        1.672912    0.000000   -0.596796
      4          9           0       -0.628093    1.105388   -0.421201
      5          1           0       -0.507460   -0.882580   -0.373091
[...]
 ---------------------------------------------------------------------------------------------------
                         Z-Matrix orientation:                         
 ---------------------------------------------------------------------
 Center     Atomic      Atomic             Coordinates (Angstroms)
 Number     Number       Type             X           Y           Z
 ---------------------------------------------------------------------
      1          6           0        0.000000    0.000000    0.000000
      2          9           0        0.000000    0.000000    1.339330
      3         17           0        1.672891    0.000000   -0.596808
      4          9           0       -0.628048    1.105441   -0.421170
      5          1           0       -0.507541   -0.882524   -0.373113
 ---------------------------------------------------------------------
                    Distance matrix (angstroms):
                    1          2          3          4          5
     1  C    0.000000
     2  F    1.339330   0.000000
     3  Cl   1.776160   2.558748   0.000000
     4  F    1.339339   2.171590   2.558743   0.000000
     5  H    1.084279   1.992212   2.362874   1.992194   0.000000
 Stoichiometry    CHClF2
 Framework group  C1[X(CHClF2)]
 Deg. of freedom     9
 Full point group                 C1      NOp   1
 Largest Abelian subgroup         C1      NOp   1
 Largest concise Abelian subgroup C1      NOp   1
                         Standard orientation:                         
 ---------------------------------------------------------------------
 Center     Atomic      Atomic             Coordinates (Angstroms)
 Number     Number       Type             X           Y           Z
 ---------------------------------------------------------------------
      1          6           0       -0.444650    0.000005    0.364901
      2          9           0       -1.032375    1.085792   -0.154186
      3         17           0        1.282253    0.000002   -0.050490
      4          9           0       -1.032364   -1.085798   -0.154187
      5          1           0       -0.547740   -0.000018    1.444268
 ---------------------------------------------------------------------
 Rotational constants (GHZ):          10.2219642           4.7984815           3.4740431

 **********************************************************************

            Population analysis using the SCF Density.

 **********************************************************************

 Orbital symmetries:
       Occupied  (A) (A) (A) (A) (A) (A) (A) (A) (A) (A) (A) (A)
                 (A) (A) (A) (A) (A) (A) (A) (A) (A)
       Virtual   (A) (A) (A) (A) (A) (A) (A) (A) (A) (A) (A) (A)
                 (A) (A) (A) (A) (A) (A) (A) (A) (A) (A) (A) (A)
                 (A) (A) (A) (A) (A) (A) (A) (A) (A) (A) (A) (A)
                 (A) (A) (A) (A) (A) (A) (A) (A) (A) (A) (A) (A)
                 (A) (A) (A) (A) (A) (A) (A) (A) (A) (A) (A) (A)
                 (A) (A) (A) (A) (A) (A) (A) (A) (A) (A) (A) (A)
                 (A) (A) (A) (A) (A) (A) (A) (A) (A) (A) (A) (A)
                 (A) (A) (A) (A) (A) (A) (A) (A) (A) (A) (A) (A)
                 (A) (A) (A) (A) (A) (A) (A) (A) (A) (A) (A) (A)
                 (A) (A) (A) (A) (A) (A) (A) (A) (A)
 The electronic state is 1-A.
 Alpha  occ. eigenvalues -- -102.95309 -25.40309 -25.40308 -10.86111  -9.94239
 Alpha  occ. eigenvalues --   -7.58251  -7.57643  -7.57635  -1.46774  -1.40377
 Alpha  occ. eigenvalues --   -0.99748  -0.81193  -0.68982  -0.67629  -0.64097
 Alpha  occ. eigenvalues --   -0.56017  -0.53586  -0.53248  -0.45692  -0.40312
 Alpha  occ. eigenvalues --   -0.40040
 Alpha virt. eigenvalues --    0.06475   0.10518   0.16067   0.19370   0.28364
 Alpha virt. eigenvalues --    0.34889   0.35658   0.37963   0.41554   0.43177
 Alpha virt. eigenvalues --    0.43221   0.46286   0.50163   0.51277   0.54556
 Alpha virt. eigenvalues --    0.60641   0.65505   0.68790   0.77041   0.85130
 Alpha virt. eigenvalues --    0.87046   0.91678   0.94715   0.94874   1.02251
 Alpha virt. eigenvalues --    1.04686   1.14337   1.15079   1.19482   1.20643
 Alpha virt. eigenvalues --    1.24633   1.44420   1.60811   1.75095   1.86826
 Alpha virt. eigenvalues --    1.96554   1.99833   2.02279   2.02859   2.04037
 Alpha virt. eigenvalues --    2.06129   2.07678   2.11236   2.12544   2.15925
 Alpha virt. eigenvalues --    2.19940   2.20498   2.28216   2.29820   2.30859
 Alpha virt. eigenvalues --    2.33376   2.34312   2.36223   2.37042   2.43611
 Alpha virt. eigenvalues --    2.46860   2.59027   2.61485   2.64304   2.71373
 Alpha virt. eigenvalues --    2.99223   3.02930   3.13050   3.14871   3.17785
 Alpha virt. eigenvalues --    3.32531   3.34121   3.34984   3.47328   3.51401
 Alpha virt. eigenvalues --    3.56654   3.59753   3.67256   3.68833   3.87666
 Alpha virt. eigenvalues --    3.90142   3.96264   4.09991   4.12074   4.72164
 Alpha virt. eigenvalues --    4.88639   4.89228   4.93252   4.99379   5.04876
 Alpha virt. eigenvalues --    5.07476   5.17270   5.34714   6.10803   6.15212
 Alpha virt. eigenvalues --    7.03686   7.03892   7.04155   7.04970   7.06924
 Alpha virt. eigenvalues --    7.09782   7.13644   7.25267   7.27781   7.43734
 Alpha virt. eigenvalues --    7.47299   7.52369   7.58353   7.69397   8.51130
 Alpha virt. eigenvalues --    8.54922   8.59793   8.60847   8.94187   8.95376
 Alpha virt. eigenvalues --    9.01477   9.10957   9.19859   9.27485  10.95648
 Alpha virt. eigenvalues --   11.33424  11.77860
          Condensed to atoms (all electrons):
               1          2          3          4          5
     1  C    4.072748   0.375361   0.324569   0.375356   0.428369
     2  F    0.375361   8.950596  -0.049233  -0.045678  -0.045710
     3  Cl   0.324569  -0.049233  16.964619  -0.049234  -0.059226
     4  F    0.375356  -0.045678  -0.049234   8.950613  -0.045712
     5  H    0.428369  -0.045710  -0.059226  -0.045712   0.643701
 Mulliken charges:
               1
     1  C    0.423598
     2  F   -0.185335
     3  Cl  -0.131495
     4  F   -0.185344
     5  H    0.078577
 Sum of Mulliken charges =  -0.00000
 Mulliken charges with hydrogens summed into heavy atoms:
               1
     1  C    0.502174
     2  F   -0.185335
     3  Cl  -0.131495
     4  F   -0.185344
 APT charges:
               1
     1  C    1.436753
     2  F   -0.531462
     3  Cl  -0.335884
     4  F   -0.531464
     5  H   -0.037943
 Sum of APT charges =  -0.00000
 APT charges with hydrogens summed into heavy atoms:
               1
     1  C    1.398810
     2  F   -0.531462
     3  Cl  -0.335884
     4  F   -0.531464
 Electronic spatial extent (au):  <R**2>=            324.9152
 Charge=             -0.0000 electrons
 Dipole moment (field-independent basis, Debye):
    X=             -0.0457    Y=              0.0000    Z=              1.5297  Tot=              1.5304
 Quadrupole moment (field-independent basis, Debye-Ang):
   XX=            -28.9313   YY=            -30.1324   ZZ=            -26.3705
   XY=             -0.0001   XZ=             -1.3484   YZ=             -0.0000
 Traceless Quadrupole moment (field-independent basis, Debye-Ang):
   XX=             -0.4533   YY=             -1.6543   ZZ=              2.1076
   XY=             -0.0001   XZ=             -1.3484   YZ=             -0.0000
 Octapole moment (field-independent basis, Debye-Ang**2):
  XXX=             -6.6469  YYY=              0.0001  ZZZ=              0.5932  XYY=             -2.1161
  XXY=              0.0000  XXZ=             -1.0419  XZZ=             -5.0268  YZZ=             -0.0000
  YYZ=             -0.4787  XYZ=              0.0000
 Hexadecapole moment (field-independent basis, Debye-Ang**3):
 XXXX=           -207.0933 YYYY=            -94.3764 ZZZZ=            -35.0557 XXXY=             -0.0002
 XXXZ=             -1.2423 YYYX=             -0.0001 YYYZ=             -0.0000 ZZZX=              0.3458
 ZZZY=             -0.0001 XXYY=            -53.9958 XXZZ=            -42.4833 YYZZ=            -21.8459
 XXYZ=             -0.0000 YYXZ=              0.7298 ZZXY=             -0.0000
 N-N= 1.675996938254D+02 E-N=-1.995501229943D+03  KE= 6.965240133968D+02
  Exact polarizability:      31.242      -0.944      21.204      -3.881      -0.178      23.296
 Approx polarizability:      36.567      -0.000      26.407      -1.849      -0.000      25.029
 Rotating derivatives to standard orientation.
 Full mass-weighted force constant matrix:
 Low frequencies ---   -1.0191   -0.0041    0.0032    0.0037    2.5306    3.5143
 Low frequencies ---  365.3410  409.9093  600.0535
 Diagonal vibrational polarizability:
       11.2411305       4.9943667       1.7923985
 Harmonic frequencies (cm**-1), IR intensities (KM/Mole), Raman scattering
 activities (A**4/AMU), depolarization ratios for plane and unpolarized
 incident light, reduced masses (AMU), force constants (mDyne/A),
 and normal coordinates:
                      1                      2                      3
                      A                      A                      A
 Frequencies --    365.3410               409.9093               600.0535
 Red. masses --     15.9353                19.8337                14.3663
 Frc consts  --      1.2532                 1.9635                 3.0477
 IR Inten    --      0.6067                 0.1267                 6.8145
  Atom  AN      X      Y      Z        X      Y      Z        X      Y      Z
     1   6     0.00  -0.36   0.00    -0.01  -0.00  -0.15     0.23  -0.00   0.38
     2   9     0.52  -0.15  -0.05    -0.48  -0.21   0.01     0.05  -0.52  -0.11
     3  17    -0.00   0.30  -0.00     0.51   0.00   0.04    -0.14   0.00  -0.02
     4   9    -0.52  -0.15   0.05    -0.48   0.21   0.01     0.05   0.52  -0.11
     5   1     0.00  -0.45  -0.00     0.40  -0.00  -0.11     0.19  -0.00   0.40
                      4                      5                      6
                      A                      A                      A
 Frequencies --    802.2723              1123.3106              1147.7689
 Red. masses --      5.4422                10.4037                 7.2425
 Frc consts  --      2.0638                 7.7346                 5.6214
 IR Inten    --    159.1726               225.6963               228.1525
  Atom  AN      X      Y      Z        X      Y      Z        X      Y      Z
     1   6     0.44   0.00  -0.36     0.48   0.00   0.54    -0.00   0.60  -0.00
     2   9    -0.05  -0.01   0.05    -0.16   0.22  -0.17     0.10  -0.20   0.12
     3  17    -0.12  -0.00   0.08     0.00  -0.00  -0.01    -0.00  -0.00   0.00
     4   9    -0.05   0.01   0.05    -0.16  -0.22  -0.17    -0.10  -0.20  -0.12
     5   1     0.73   0.00  -0.34     0.10   0.00   0.52    -0.00   0.72  -0.00
                      7                      8                      9
                      A                      A                      A
 Frequencies --   1338.5679              1389.8819              3164.8440
 Red. masses --      1.1505                 1.1594                 1.0891
 Frc consts  --      1.2145                 1.3196                 6.4271
 IR Inten    --     66.1303                15.1721                15.6600
  Atom  AN      X      Y      Z        X      Y      Z        X      Y      Z
     1   6    -0.10   0.00   0.03     0.00  -0.11   0.00     0.01   0.00  -0.09
     2   9     0.01   0.01  -0.02     0.00   0.00   0.02    -0.00   0.00   0.00
     3  17    -0.00  -0.00   0.01    -0.00   0.00  -0.00     0.00   0.00   0.00
     4   9     0.01  -0.01  -0.02    -0.00   0.00  -0.02    -0.00  -0.00   0.00
     5   1     0.99  -0.00   0.13     0.00   0.99   0.00    -0.09  -0.00   0.99

 -------------------
 - Thermochemistry -
 -------------------
 Temperature   298.150 Kelvin.  Pressure   1.00000 Atm.
 Atom     1 has atomic number  6 and mass  12.00000
 Atom     2 has atomic number  9 and mass  18.99840
 Atom     3 has atomic number 17 and mass  34.96885
 Atom     4 has atomic number  9 and mass  18.99840
 Atom     5 has atomic number  1 and mass   1.00783
 Molecular mass:    85.97348 amu.
 Principal axes and moments of inertia in atomic units:
                           1         2         3
     Eigenvalues --   176.55523 376.10673 519.49304
           X            0.99994   0.00000  -0.01077
           Y           -0.00000   1.00000  -0.00000
           Z            0.01077   0.00000   0.99994
 This molecule is an asymmetric top.
 Rotational symmetry number  1.
 Rotational temperatures (Kelvin)      0.49058     0.23029     0.16673
 Rotational constants (GHZ):          10.22196     4.79848     3.47404
 Zero-point vibrational energy      61858.6 (Joules/Mol)
                                   14.78456 (Kcal/Mol)
 Warning -- explicit consideration of   3 degrees of freedom as
           vibrations may cause significant error
 Vibrational temperatures:    525.64   589.77   863.34  1154.29  1616.19
          (Kelvin)           1651.38  1925.90  1999.73  4553.50
 
 Zero-point correction=                           0.023561 (Hartree/Particle)
 Thermal correction to Energy=                    0.027336
 Thermal correction to Enthalpy=                  0.028280
 Thermal correction to Gibbs Free Energy=        -0.003623
 Sum of electronic and zero-point Energies=           -698.410478
 Sum of electronic and thermal Energies=              -698.406703
 Sum of electronic and thermal Enthalpies=            -698.405759
 Sum of electronic and thermal Free Energies=         -698.437662
 
                     E (Thermal)             CV                S
                      KCal/Mol        Cal/Mol-Kelvin    Cal/Mol-Kelvin
 Total                   17.154             11.375             67.147
 Electronic               0.000              0.000              0.000
 Translational            0.889              2.981             39.268
 Rotational               0.889              2.981             25.048
 Vibrational             15.376              5.413              2.831
 Vibration     1          0.739              1.544              1.099
 Vibration     2          0.774              1.449              0.927
 Vibration     3          0.958              1.032              0.450
                       Q            Log10(Q)             Ln(Q)
 Total Bot       0.464123D+02          1.666633          3.837565
 Total V=0       0.319000D+13         12.503791         28.791042
 Vib (Bot)       0.222793D-10        -10.652099        -24.527364
 Vib (Bot)    1  0.499904D+00         -0.301114         -0.693340
 Vib (Bot)    2  0.431642D+00         -0.364877         -0.840160
 Vib (Bot)    3  0.248830D+00         -0.604097         -1.390986
 Vib (V=0)       0.153129D+01          0.185059          0.426114
 Vib (V=0)    1  0.120704D+01          0.081721          0.188170
 Vib (V=0)    2  0.116054D+01          0.064661          0.148886
 Vib (V=0)    3  0.105849D+01          0.024689          0.056848
 Electronic      0.100000D+01          0.000000          0.000000
 Translational   0.313329D+08          7.496001         17.260179
 Rotational      0.664862D+05          4.822731         11.104749
 ***** Axes restored to original set *****
 -------------------------------------------------------------------
 Center     Atomic                   Forces (Hartrees/Bohr)
 Number     Number              X              Y              Z
 -------------------------------------------------------------------
      1        6           0.000011637    0.000012760   -0.000004450
      2        9          -0.000002195   -0.000003651   -0.000001299
      3       17          -0.000009052   -0.000003100    0.000002429
      4        9          -0.000000644   -0.000004542    0.000001066
      5        1           0.000000255   -0.000001468    0.000002254
 -------------------------------------------------------------------
 Cartesian Forces:  Max     0.000012760 RMS     0.000005567
 -----------------------------------------------------------------------------------------------
                       Internal Coordinate Forces (Hartree/Bohr or radian)
  Cent   Atom   N1       Length/X         N2         Alpha/Y        N3         Beta/Z          J
 -----------------------------------------------------------------------------------------------
      1  C 
      2  F        1  -0.000001(     1)
      3  Cl       1  -0.000009(     2)      2   0.000003(     5)
      4  F        1  -0.000004(     3)      2   0.000000(     6)      3  -0.000007(     8)     0
      5  H        1   0.000000(     4)      2  -0.000005(     7)      3  -0.000002(     9)     0
 -----------------------------------------------------------------------------------------------
 Internal  Forces:  Max     0.000009342 RMS     0.000004535

 ----------------------------------------------------------------------

 Electric dipole moment (input orientation):
 (Debye = 10**-18 statcoulomb cm , SI units = C m)
                  (au)            (Debye)         (10**-30 SI)
   Tot        0.564956D+00      0.143597D+01      0.478989D+01
   x         -0.250872D+00     -0.637653D+00     -0.212698D+01
   y         -0.464174D+00     -0.117981D+01     -0.393543D+01
   z         -0.201943D+00     -0.513289D+00     -0.171215D+01

 Dipole polarizability, Alpha (input orientation).
 (esu units = cm**3 , SI units = C**2 m**2 J**-1)
 Alpha(0;0):
               (au)            (10**-24 esu)      (10**-40 SI)
   iso        0.252471D+02      0.374124D+01      0.416269D+01
   aniso      0.114932D+02      0.170312D+01      0.189497D+01
   xx         0.312416D+02      0.462953D+01      0.515105D+01
   yx        -0.943806D+00     -0.139858D+00     -0.155613D+00
   yy         0.212035D+02      0.314204D+01      0.349599D+01
   zx        -0.388116D+01     -0.575129D+00     -0.639917D+00
   zy        -0.178136D+00     -0.263970D-01     -0.293706D-01
   zz         0.232963D+02      0.345215D+01      0.384103D+01

 ----------------------------------------------------------------------

 Dipole orientation:
     6          0.00000000         -0.00000000         -0.00000000
     9         -1.12389020          2.07946896         -0.90469428
    17          3.20289639         -0.07695298         -1.00066257
     9         -1.22246789         -2.02305778         -0.90481396
     1         -0.05846209          0.00130316          2.04815481

 Electric dipole moment (dipole orientation):
 (Debye = 10**-18 statcoulomb cm , SI units = C m)
                  (au)            (Debye)         (10**-30 SI)
   Tot        0.564956D+00      0.143597D+01      0.478989D+01
   x          0.000000D+00      0.000000D+00      0.000000D+00
   y          0.000000D+00      0.000000D+00      0.000000D+00
   z          0.564956D+00      0.143597D+01      0.478989D+01

 Dipole polarizability, Alpha (dipole orientation).
 (esu units = cm**3 , SI units = C**2 m**2 J**-1)
 Alpha(0;0):
               (au)            (10**-24 esu)      (10**-40 SI)
   iso        0.252471D+02      0.374124D+01      0.416269D+01
   aniso      0.114932D+02      0.170312D+01      0.189497D+01
   xx         0.322871D+02      0.478446D+01      0.532342D+01
   yx        -0.246580D+00     -0.365394D-01     -0.406556D-01
   yy         0.220294D+02      0.326442D+01      0.363216D+01
   zx        -0.258926D+01     -0.383688D+00     -0.426911D+00
   zy         0.622085D-01      0.921835D-02      0.102568D-01
   zz         0.214249D+02      0.317484D+01      0.353249D+01

 ----------------------------------------------------------------------


 GROWING OLD ISN'T SO BAD -- WHEN YOU CONSIDER THE ALTERNATIVE.

                     -- MAURICE CHEVALIER
 Error termination request processed by link 9999.
 Error termination via Lnk1e in /apps/gaussian/g16c01/g16/l9999.exe at Mon Sep 21 19:03:16 2020.
 Job cpu time:       0 days 10 hours 58 minutes 20.4 seconds.
 Elapsed time:       0 days  5 hours 31 minutes 52.6 seconds.
 File lengths (MBytes):  RWF=   2650 Int=      0 D2E=      0 Chk=      3 Scr=      1
