 Entering Gaussian System, Link 0=g16
 Input=CFC-22.gjf
 Output=CFC-22.log
 Initial command:
 /apps/gaussian/g16c01/g16/l1.exe "/jobfs/9051554.gadi-pbs/Gau-668004.inp" -scrdir="/jobfs/9051554.gadi-pbs/"
 Entering Link 1 = /apps/gaussian/g16c01/g16/l1.exe PID=    668005.
  
 Copyright (c) 1988-2019, Gaussian, Inc.  All Rights Reserved.
  
 This is part of the Gaussian(R) 16 program.  It is based on
 the Gaussian(R) 09 system (copyright 2009, Gaussian, Inc.),
 the Gaussian(R) 03 system (copyright 2003, Gaussian, Inc.),
 the Gaussian(R) 98 system (copyright 1998, Gaussian, Inc.),
 the Gaussian(R) 94 system (copyright 1995, Gaussian, Inc.),
 the Gaussian 92(TM) system (copyright 1992, Gaussian, Inc.),
 the Gaussian 90(TM) system (copyright 1990, Gaussian, Inc.),
 the Gaussian 88(TM) system (copyright 1988, Gaussian, Inc.),
 the Gaussian 86(TM) system (copyright 1986, Carnegie Mellon
 University), and the Gaussian 82(TM) system (copyright 1983,
 Carnegie Mellon University). Gaussian is a federally registered
 trademark of Gaussian, Inc.
  
 This software contains proprietary and confidential information,
 including trade secrets, belonging to Gaussian, Inc.
  
 This software is provided under written license and may be
 used, copied, transmitted, or stored only in accord with that
 written license.
  
 The following legend is applicable only to US Government
 contracts under FAR:
  
                    RESTRICTED RIGHTS LEGEND
  
 Use, reproduction and disclosure by the US Government is
 subject to restrictions as set forth in subparagraphs (a)
 and (c) of the Commercial Computer Software - Restricted
 Rights clause in FAR 52.227-19.
  
 Gaussian, Inc.
 340 Quinnipiac St., Bldg. 40, Wallingford CT 06492
  
  
 ---------------------------------------------------------------
 Warning -- This program may not be used in any manner that
 competes with the business of Gaussian, Inc. or will provide
 assistance to any competitor of Gaussian, Inc.  The licensee
 of this program is prohibited from giving any competitor of
 Gaussian, Inc. access to this program.  By using this program,
 the user acknowledges that Gaussian, Inc. is engaged in the
 business of creating and licensing software in the field of
 computational chemistry and represents and warrants to the
 licensee that it is not a competitor of Gaussian, Inc. and that
 it will not use this program in any manner prohibited above.
 ---------------------------------------------------------------
  

 Cite this work as:
 Gaussian 16, Revision C.01,
 M. J. Frisch, G. W. Trucks, H. B. Schlegel, G. E. Scuseria, 
 M. A. Robb, J. R. Cheeseman, G. Scalmani, V. Barone, 
 G. A. Petersson, H. Nakatsuji, X. Li, M. Caricato, A. V. Marenich, 
 J. Bloino, B. G. Janesko, R. Gomperts, B. Mennucci, H. P. Hratchian, 
 J. V. Ortiz, A. F. Izmaylov, J. L. Sonnenberg, D. Williams-Young, 
 F. Ding, F. Lipparini, F. Egidi, J. Goings, B. Peng, A. Petrone, 
 T. Henderson, D. Ranasinghe, V. G. Zakrzewski, J. Gao, N. Rega, 
 G. Zheng, W. Liang, M. Hada, M. Ehara, K. Toyota, R. Fukuda, 
 J. Hasegawa, M. Ishida, T. Nakajima, Y. Honda, O. Kitao, H. Nakai, 
 T. Vreven, K. Throssell, J. A. Montgomery, Jr., J. E. Peralta, 
 F. Ogliaro, M. J. Bearpark, J. J. Heyd, E. N. Brothers, K. N. Kudin, 
 V. N. Staroverov, T. A. Keith, R. Kobayashi, J. Normand, 
 K. Raghavachari, A. P. Rendell, J. C. Burant, S. S. Iyengar, 
 J. Tomasi, M. Cossi, J. M. Millam, M. Klene, C. Adamo, R. Cammi, 
 J. W. Ochterski, R. L. Martin, K. Morokuma, O. Farkas, 
 J. B. Foresman, and D. J. Fox, Gaussian, Inc., Wallingford CT, 2019.
 
 ******************************************
 Gaussian 16:  ES64L-G16RevC.01  3-Jul-2019
                27-Jul-2020 
 ******************************************
 %NprocShared=4
 Will use up to    4 processors via shared memory.
 %chk=checkpoint.chk
 ----------------------------------------------------------------------
 # wB97xD/Gen Freq=(anharmonic,ReadAnharm) Opt=(VeryTight,ZMatrix,CalcA
 ll) Int=UltraFine
 ----------------------------------------------------------------------
 1/7=1,10=4,18=40,26=4,38=1,80=1/1,3;
 2/12=2,17=6,18=5,29=3,40=1/2;
 3/5=7,11=2,25=1,30=1,71=2,74=-58,75=-5,140=1/1,2,3;
 4//1;
 5/5=2,38=5/2;
 8/6=4,10=90,11=11/1;
 11/6=1,8=1,9=11,15=111,16=1/1,2,10;
 10/6=1/2;
 6/7=2,8=2,9=2,10=2,18=1,28=1/1;
 7/10=1,25=1/1,2,3,16;
 1/7=1,10=4,18=40,26=4,80=1/3(3);
 2/29=3/2;
 7/8=1,9=1,25=1,44=-1,71=2,72=1/16;
 99//99;
 2/29=3/2;
 3/5=7,6=1,11=2,25=1,30=1,71=2,74=-58,75=-5,82=7,140=1/1,2,3;
 4/5=5,16=3,69=1/1;
 5/5=2,38=5/2;
 8/6=4,10=90,11=11/1;
 11/6=1,8=1,9=11,15=111,16=1/1,2,10;
 10/6=1/2;
 7/10=1,25=1/1,2,3,16;
 1/7=1,10=4,18=40,26=4,80=1/3(-8);
 2/29=3/2;
 6/7=2,8=2,9=2,10=2,18=1,19=2,28=1/1;
 7/8=1,9=1,25=1,44=-1,71=1,72=1/16;
 99//99;
 -------------------------------------
 CFC-22 - HClF2 ANHARMONIC FREQUENCIES
 -------------------------------------
 Symbolic Z-matrix:
 Charge =  0 Multiplicity = 1
 C
 F                    1    r2
 Cl                   1    r3       2    a3
 F                    1    r4       2    a4       3    d4       0
 H                    1    r5       2    a5       3    d5       0
       Variables:
  r2                    1.3554                   
  r3                    1.7607                   
  a3                  110.09                     
  r4                    1.3552                   
  a4                  107.02                     
  d4                  240.09                     
  r5                    1.0931                   
  a5                  109.45                     
  d5                  121.56                     
 

 GradGradGradGradGradGradGradGradGradGradGradGradGradGradGradGradGradGrad
 Berny optimization.
 Initialization pass.
                       ----------------------------
                       !    Initial Parameters    !
                       ! (Angstroms and Degrees)  !
 ----------------------                            ----------------------
 !      Name          Value   Derivative information (Atomic Units)     !
 ------------------------------------------------------------------------
 !       r2          1.3554   calculate D2E/DX2 analytically            !
 !       r3          1.7607   calculate D2E/DX2 analytically            !
 !       a3        110.09     calculate D2E/DX2 analytically            !
 !       r4          1.3552   calculate D2E/DX2 analytically            !
 !       a4        107.02     calculate D2E/DX2 analytically            !
 !       d4        240.09     calculate D2E/DX2 analytically            !
 !       r5          1.0931   calculate D2E/DX2 analytically            !
 !       a5        109.45     calculate D2E/DX2 analytically            !
 !       d5        121.56     calculate D2E/DX2 analytically            !
 ------------------------------------------------------------------------
 Trust Radius=3.00D-01 FncErr=1.00D-07 GrdErr=1.00D-06 EigMax=2.50D+02 EigMin=1.00D-04
 Number of steps in this run=     20 maximum allowed number of steps=    100.
 GradGradGradGradGradGradGradGradGradGradGradGradGradGradGradGradGradGrad

 ---------------------------------------------------------------------------------------------------
                            Z-MATRIX (ANGSTROMS AND DEGREES)
   CD    Cent   Atom    N1       Length/X        N2       Alpha/Y        N3        Beta/Z          J
 ---------------------------------------------------------------------------------------------------
      1      1  C 
      2      2  F        1   1.355400(     1)
      3      3  Cl       1   1.760700(     2)      2  110.090(     5)
      4      4  F        1   1.355200(     3)      2  107.020(     6)      3  240.090(     8)      0
      5      5  H        1   1.093100(     4)      2  109.450(     7)      3  121.560(     9)      0
 ---------------------------------------------------------------------------------------------------
                         Z-Matrix orientation:                         
 ---------------------------------------------------------------------
 Center     Atomic      Atomic             Coordinates (Angstroms)
 Number     Number       Type             X           Y           Z
 ---------------------------------------------------------------------
      1          6           0        0.000000    0.000000    0.000000
      2          9           0        0.000000    0.000000    1.355400
      3         17           0        1.653569    0.000000   -0.604793
      4          9           0       -0.646159    1.123252   -0.396674
      5          1           0       -0.539469   -0.878268   -0.363985
 ---------------------------------------------------------------------
                    Distance matrix (angstroms):
                    1          2          3          4          5
     1  C    0.000000
     2  F    1.355400   0.000000
     3  Cl   1.760700   2.564497   0.000000
     4  F    1.355200   2.179216   2.567831   0.000000
     5  H    1.093100   2.004661   2.374607   2.004628   0.000000
 Stoichiometry    CHClF2
 Framework group  C1[X(CHClF2)]
 Deg. of freedom     9
 Full point group                 C1      NOp   1
 Largest Abelian subgroup         C1      NOp   1
 Largest concise Abelian subgroup C1      NOp   1
                         Standard orientation:                         
 ---------------------------------------------------------------------
 Center     Atomic      Atomic             Coordinates (Angstroms)
 Number     Number       Type             X           Y           Z
 ---------------------------------------------------------------------
      1          6           0       -0.426688   -0.000436    0.369956
      2          9           0       -1.035069    1.091321   -0.154494
      3         17           0        1.282607   -0.001656   -0.052387
      4          9           0       -1.041902   -1.087884   -0.154958
      5          1           0       -0.551457   -0.000181    1.455912
 ---------------------------------------------------------------------
 Rotational constants (GHZ):          10.1387353           4.7793807           3.4587103
 General basis read from cards:  (5D, 7F)
 There are   113 symmetry adapted cartesian basis functions of A   symmetry.
 There are   105 symmetry adapted basis functions of A   symmetry.
   105 basis functions,   207 primitive gaussians,   113 cartesian basis functions
    21 alpha electrons       21 beta electrons
       nuclear repulsion energy       167.0397416283 Hartrees.
 NAtoms=    5 NActive=    5 NUniq=    5 SFac= 1.00D+00 NAtFMM=   60 NAOKFM=F Big=F
 Integral buffers will be    131072 words long.
 Raffenetti 2 integral format.
 Two-electron integral symmetry is turned on.
 Nuclear repulsion after empirical dispersion term =      167.0392901881 Hartrees.
 One-electron integrals computed using PRISM.
 NBasis=   105 RedAO= T EigKep=  1.26D-03  NBF=   105
 NBsUse=   105 1.00D-06 EigRej= -1.00D+00 NBFU=   105
 ExpMin= 2.56D-02 ExpMax= 6.35D+04 ExpMxC= 2.17D+03 IAcc=3 IRadAn=         5 AccDes= 0.00D+00
 Harris functional with IExCor= 4639 and IRadAn=       5 diagonalized for initial guess.
 HarFok:  IExCor= 4639 AccDes= 0.00D+00 IRadAn=         5 IDoV= 1 UseB2=F ITyADJ=14
 ICtDFT=  3500011 ScaDFX=  1.000000  1.000000  1.000000  1.000000
 FoFCou: FMM=F IPFlag=           0 FMFlag=      100000 FMFlg1=           0
         NFxFlg=           0 DoJE=T BraDBF=F KetDBF=T FulRan=T
         wScrn=  0.000000 ICntrl=       500 IOpCl=  0 I1Cent=   200000004 NGrid=           0
         NMat0=    1 NMatS0=      1 NMatT0=    0 NMatD0=    1 NMtDS0=    0 NMtDT0=    0
 Petite list used in FoFCou.
 Keep R1 ints in memory in canonical form, NReq=35327257.
 Requested convergence on RMS density matrix=1.00D-08 within 128 cycles.
 Requested convergence on MAX density matrix=1.00D-06.
 Requested convergence on             energy=1.00D-06.
 No special actions if energy rises.
 SCF Done:  E(RwB97XD) =  -698.485764237     A.U. after   12 cycles
            NFock= 12  Conv=0.86D-08     -V/T= 2.0016
 DoSCS=F DFT=T ScalE2(SS,OS)=  1.000000  1.000000
 Range of M.O.s used for correlation:     1   105
 NBasis=   105 NAE=    21 NBE=    21 NFC=     0 NFV=     0
 NROrb=    105 NOA=    21 NOB=    21 NVA=    84 NVB=    84
 Symmetrizing basis deriv contribution to polar:
 IMax=3 JMax=2 DiffMx= 0.00D+00
 G2DrvN: will do     6 centers at a time, making    1 passes.
 Calling FoFCou, ICntrl=  3107 FMM=F I1Cent=   0 AccDes= 0.00D+00.
 End of G2Drv F.D. properties file   721 does not exist.
 End of G2Drv F.D. properties file   722 does not exist.
 End of G2Drv F.D. properties file   788 does not exist.
          IDoAtm=11111
          Differentiating once with respect to electric field.
                with respect to dipole field.
          Differentiating once with respect to nuclear coordinates.
 Keep R1 ints in memory in canonical form, NReq=35318136.
          There are    18 degrees of freedom in the 1st order CPHF.  IDoFFX=6 NUNeed=     3.
     15 vectors produced by pass  0 Test12= 9.80D-15 5.56D-09 XBig12= 1.41D+01 1.58D+00.
 AX will form    15 AO Fock derivatives at one time.
     15 vectors produced by pass  1 Test12= 9.80D-15 5.56D-09 XBig12= 1.82D+00 3.30D-01.
     15 vectors produced by pass  2 Test12= 9.80D-15 5.56D-09 XBig12= 1.22D-01 7.19D-02.
     15 vectors produced by pass  3 Test12= 9.80D-15 5.56D-09 XBig12= 1.58D-03 8.99D-03.
     15 vectors produced by pass  4 Test12= 9.80D-15 5.56D-09 XBig12= 2.54D-05 9.28D-04.
     15 vectors produced by pass  5 Test12= 9.80D-15 5.56D-09 XBig12= 2.21D-07 1.47D-04.
     15 vectors produced by pass  6 Test12= 9.80D-15 5.56D-09 XBig12= 1.45D-09 9.05D-06.
      5 vectors produced by pass  7 Test12= 9.80D-15 5.56D-09 XBig12= 1.07D-11 8.94D-07.
      3 vectors produced by pass  8 Test12= 9.80D-15 5.56D-09 XBig12= 7.22D-14 6.68D-08.
 InvSVY:  IOpt=1 It=  1 EMax= 1.11D-15
 Solved reduced A of dimension   113 with    15 vectors.
 Isotropic polarizability for W=    0.000000       31.27 Bohr**3.
 End of Minotr F.D. properties file   721 does not exist.
 End of Minotr F.D. properties file   722 does not exist.
 End of Minotr F.D. properties file   788 does not exist.

 **********************************************************************

            Population analysis using the SCF Density.

 **********************************************************************

 Orbital symmetries:
       Occupied  (A) (A) (A) (A) (A) (A) (A) (A) (A) (A) (A) (A)
                 (A) (A) (A) (A) (A) (A) (A) (A) (A)
       Virtual   (A) (A) (A) (A) (A) (A) (A) (A) (A) (A) (A) (A)
                 (A) (A) (A) (A) (A) (A) (A) (A) (A) (A) (A) (A)
                 (A) (A) (A) (A) (A) (A) (A) (A) (A) (A) (A) (A)
                 (A) (A) (A) (A) (A) (A) (A) (A) (A) (A) (A) (A)
                 (A) (A) (A) (A) (A) (A) (A) (A) (A) (A) (A) (A)
                 (A) (A) (A) (A) (A) (A) (A) (A) (A) (A) (A) (A)
                 (A) (A) (A) (A) (A) (A) (A) (A) (A) (A) (A) (A)
 The electronic state is 1-A.
 Alpha  occ. eigenvalues -- -101.70769 -24.85381 -24.85356 -10.53332  -9.60870
 Alpha  occ. eigenvalues --   -7.35585  -7.34533  -7.34520  -1.40739  -1.34523
 Alpha  occ. eigenvalues --   -0.99313  -0.80967  -0.69001  -0.68181  -0.64647
 Alpha  occ. eigenvalues --   -0.55487  -0.54537  -0.52954  -0.47889  -0.43263
 Alpha  occ. eigenvalues --   -0.43052
 Alpha virt. eigenvalues --    0.03329   0.05877   0.07567   0.07676   0.08717
 Alpha virt. eigenvalues --    0.12283   0.12920   0.13327   0.14668   0.16588
 Alpha virt. eigenvalues --    0.16881   0.18496   0.20128   0.22924   0.24135
 Alpha virt. eigenvalues --    0.24856   0.26415   0.27565   0.27673   0.28912
 Alpha virt. eigenvalues --    0.31246   0.31282   0.32357   0.34335   0.39644
 Alpha virt. eigenvalues --    0.39660   0.41718   0.43484   0.44647   0.44932
 Alpha virt. eigenvalues --    0.49363   0.49404   0.51265   0.53595   0.66017
 Alpha virt. eigenvalues --    0.66794   0.68704   0.73338   0.76963   0.79123
 Alpha virt. eigenvalues --    0.81368   0.82998   0.83630   0.84391   0.84606
 Alpha virt. eigenvalues --    0.92279   0.94734   0.94891   0.98171   0.99067
 Alpha virt. eigenvalues --    1.00230   1.02934   1.03649   1.10980   1.14250
 Alpha virt. eigenvalues --    1.18551   1.37983   1.46162   1.46735   1.62338
 Alpha virt. eigenvalues --    1.65690   1.80321   1.87684   1.89527   1.97808
 Alpha virt. eigenvalues --    2.05909   2.10286   2.12248   2.22993   2.35798
 Alpha virt. eigenvalues --    2.46910   2.69740   2.78544   2.81990   2.84420
 Alpha virt. eigenvalues --    2.86364   2.87333   2.91443   3.01216   3.13008
 Alpha virt. eigenvalues --    3.23490   3.26523   3.53708   3.62350
          Condensed to atoms (all electrons):
               1          2          3          4          5
     1  C    4.272332  -0.118150   0.281174  -0.118551   0.372027
     2  F   -0.118150   9.980811  -0.101618  -0.074212  -0.106217
     3  Cl   0.281174  -0.101618  17.508965  -0.101150  -0.124587
     4  F   -0.118551  -0.074212  -0.101150   9.981045  -0.106940
     5  H    0.372027  -0.106217  -0.124587  -0.106940   0.653294
 Mulliken charges:
               1
     1  C    1.311168
     2  F   -0.580613
     3  Cl  -0.462786
     4  F   -0.580192
     5  H    0.312423
 Sum of Mulliken charges =  -0.00000
 Mulliken charges with hydrogens summed into heavy atoms:
               1
     1  C    1.623591
     2  F   -0.580613
     3  Cl  -0.462786
     4  F   -0.580192
 APT charges:
               1
     1  C    1.405153
     2  F   -0.539420
     3  Cl  -0.309201
     4  F   -0.539458
     5  H   -0.017075
 Sum of APT charges =  -0.00000
 APT charges with hydrogens summed into heavy atoms:
               1
     1  C    1.388079
     2  F   -0.539420
     3  Cl  -0.309201
     4  F   -0.539458
 Electronic spatial extent (au):  <R**2>=            326.7603
 Charge=             -0.0000 electrons
 Dipole moment (field-independent basis, Debye):
    X=              0.1386    Y=             -0.0034    Z=              1.4865  Tot=              1.4930
 Quadrupole moment (field-independent basis, Debye-Ang):
   XX=            -28.9240   YY=            -30.4758   ZZ=            -26.7612
   XY=              0.0020   XZ=             -1.4762   YZ=              0.0003
 Traceless Quadrupole moment (field-independent basis, Debye-Ang):
   XX=             -0.2037   YY=             -1.7555   ZZ=              1.9592
   XY=              0.0020   XZ=             -1.4762   YZ=              0.0003
 Octapole moment (field-independent basis, Debye-Ang**2):
  XXX=             -4.6828  YYY=              0.0131  ZZZ=              0.8130  XYY=             -2.2593
  XXY=              0.0118  XXZ=             -1.4389  XZZ=             -4.8662  YZZ=              0.0072
  YYZ=             -0.6608  XYZ=              0.0011
 Hexadecapole moment (field-independent basis, Debye-Ang**3):
 XXXX=           -208.3067 YYYY=            -98.3688 ZZZZ=            -36.8734 XXXY=              0.0190
 XXXZ=             -2.0892 YYYX=              0.0317 YYYZ=             -0.0051 ZZZX=             -0.3835
 ZZZY=              0.0018 XXYY=            -54.8288 XXZZ=            -43.3422 YYZZ=            -22.9431
 XXYZ=              0.0068 YYXZ=              0.9138 ZZXY=              0.0096
 N-N= 1.670392901881D+02 E-N=-1.995055777260D+03  KE= 6.973823783536D+02
  Exact polarizability:      36.914      -0.000      29.127      -1.042      -0.001      27.760
 Approx polarizability:      39.014       0.008      31.883      -1.064      -0.002      30.090
 Calling FoFJK, ICntrl=    100127 FMM=F ISym2X=0 I1Cent= 0 IOpClX= 0 NMat=1 NMatS=1 NMatT=0.
 ***** Axes restored to original set *****
 -------------------------------------------------------------------
 Center     Atomic                   Forces (Hartrees/Bohr)
 Number     Number              X              Y              Z
 -------------------------------------------------------------------
      1        6          -0.011272697    0.008419680    0.009972937
      2        9           0.002269601   -0.001036550   -0.010696702
      3       17           0.000637946    0.000829910   -0.000035833
      4        9           0.007026075   -0.008674110    0.001018291
      5        1           0.001339075    0.000461070   -0.000258694
 -------------------------------------------------------------------
 Cartesian Forces:  Max     0.011272697 RMS     0.006038110
 -----------------------------------------------------------------------------------------------
                       Internal Coordinate Forces (Hartree/Bohr or radian)
  Cent   Atom   N1       Length/X         N2         Alpha/Y        N3         Beta/Z          J
 -----------------------------------------------------------------------------------------------
      1  C 
      2  F        1  -0.010697(     1)
      3  Cl       1   0.000611(     2)      2  -0.000617(     5)
      4  F        1  -0.010838(     3)      2   0.005769(     6)      3   0.004322(     8)     0
      5  H        1  -0.000945(     4)      2   0.001256(     7)      3  -0.001752(     9)     0
 -----------------------------------------------------------------------------------------------
 Internal  Forces:  Max     0.010837591 RMS     0.005677732

 GradGradGradGradGradGradGradGradGradGradGradGradGradGradGradGradGradGrad
 Berny optimization.
 Search for a local minimum.
 Step number   1 out of a maximum of   20
 All quantities printed in internal units (Hartrees-Bohrs-Radians)
 Second derivative matrix not updated -- analytic derivatives used.
 The second derivative matrix:
                          r2        r3        a3        r4        a4
           r2           0.36545
           r3           0.04092   0.23197
           a3           0.06060   0.00316   0.37511
           r4           0.05280   0.04065  -0.03005   0.36568
           a4           0.07106  -0.02708   0.09444   0.00806   0.45442
           d4           0.00363  -0.04553   0.06421   0.01045   0.02222
           r5           0.01085   0.00433  -0.00101   0.01086  -0.00260
           a5           0.06946  -0.02698   0.06458  -0.03007   0.06855
           d5          -0.00159   0.04166  -0.03942  -0.05908   0.05311
                          d4        r5        a5        d5
           d4           0.34314
           r5           0.00722   0.35259
           a5          -0.04594   0.00367   0.26583
           d5          -0.13396  -0.00566   0.00567   0.23028
 ITU=  0
     Eigenvalues ---    0.10968   0.15735   0.24525   0.26363   0.33954
     Eigenvalues ---    0.35121   0.42904   0.48312   0.60565
 RFO step:  Lambda=-9.34575178D-04 EMin= 1.09683640D-01
 Linear search not attempted -- first point.
 Variable       Old X    -DE/DX   Delta X   Delta X   Delta X     New X
                                 (Linear)    (Quad)   (Total)
    r2        2.56133  -0.01070   0.00000  -0.03206  -0.03206   2.52928
    r3        3.32724   0.00061   0.00000   0.02373   0.02373   3.35097
    a3        1.92143  -0.00062   0.00000  -0.01075  -0.01075   1.91068
    r4        2.56096  -0.01084   0.00000  -0.03169  -0.03169   2.52926
    a4        1.86785   0.00577   0.00000   0.02211   0.02211   1.88997
    d4        4.19036   0.00432   0.00000   0.01089   0.01089   4.20125
    r5        2.06566  -0.00095   0.00000  -0.00155  -0.00155   2.06411
    a5        1.91026   0.00126   0.00000   0.01115   0.01115   1.92141
    d5        2.12162  -0.00175   0.00000  -0.02109  -0.02109   2.10053
         Item               Value     Threshold  Converged?
 Maximum Force            0.010838     0.000002     NO 
 RMS     Force            0.005678     0.000001     NO 
 Maximum Displacement     0.032056     0.000006     NO 
 RMS     Displacement     0.020789     0.000004     NO 
 Predicted change in Energy=-4.691051D-04
 GradGradGradGradGradGradGradGradGradGradGradGradGradGradGradGradGradGrad

 ---------------------------------------------------------------------------------------------------
                            Z-MATRIX (ANGSTROMS AND DEGREES)
   CD    Cent   Atom    N1       Length/X        N2       Alpha/Y        N3        Beta/Z          J
 ---------------------------------------------------------------------------------------------------
      1      1  C 
      2      2  F        1   1.338437(     1)
      3      3  Cl       1   1.773257(     2)      2  109.474(     5)
      4      4  F        1   1.338429(     3)      2  108.287(     6)      3  240.714(     8)      0
      5      5  H        1   1.092280(     4)      2  110.089(     7)      3  120.352(     9)      0
 ---------------------------------------------------------------------------------------------------
                         Z-Matrix orientation:                         
 ---------------------------------------------------------------------
 Center     Atomic      Atomic             Coordinates (Angstroms)
 Number     Number       Type             X           Y           Z
 ---------------------------------------------------------------------
      1          6           0        0.000000    0.000000    0.000000
      2          9           0        0.000000    0.000000    1.338437
      3         17           0        1.671813    0.000000   -0.591168
      4          9           0       -0.621652    1.108407   -0.419969
      5          1           0       -0.518358   -0.885227   -0.375171
 ---------------------------------------------------------------------
                    Distance matrix (angstroms):
                    1          2          3          4          5
     1  C    0.000000
     2  F    1.338437   0.000000
     3  Cl   1.773257   2.553103   0.000000
     4  F    1.338429   2.169565   2.553010   0.000000
     5  H    1.092280   1.997191   2.372158   1.996811   0.000000
 Stoichiometry    CHClF2
 Framework group  C1[X(CHClF2)]
 Deg. of freedom     9
 Full point group                 C1      NOp   1
 Largest Abelian subgroup         C1      NOp   1
 Largest concise Abelian subgroup C1      NOp   1
                         Standard orientation:                         
 ---------------------------------------------------------------------
 Center     Atomic      Atomic             Coordinates (Angstroms)
 Number     Number       Type             X           Y           Z
 ---------------------------------------------------------------------
      1          6           0       -0.444210    0.000004    0.366425
      2          9           0       -1.029454    1.084757   -0.155317
      3         17           0        1.279380    0.000047   -0.050317
      4          9           0       -1.029280   -1.084808   -0.155369
      5          1           0       -0.555596   -0.000376    1.453011
 ---------------------------------------------------------------------
 Rotational constants (GHZ):          10.2286973           4.8184731           3.4877448
 Basis read from rwf:  (5D, 7F)
 There are   113 symmetry adapted cartesian basis functions of A   symmetry.
 There are   105 symmetry adapted basis functions of A   symmetry.
   105 basis functions,   207 primitive gaussians,   113 cartesian basis functions
    21 alpha electrons       21 beta electrons
       nuclear repulsion energy       167.7898066488 Hartrees.
 NAtoms=    5 NActive=    5 NUniq=    5 SFac= 1.00D+00 NAtFMM=   60 NAOKFM=F Big=F
 Integral buffers will be    131072 words long.
 Raffenetti 2 integral format.
 Two-electron integral symmetry is turned on.
 Nuclear repulsion after empirical dispersion term =      167.7893647681 Hartrees.
 One-electron integrals computed using PRISM.
 NBasis=   105 RedAO= T EigKep=  1.26D-03  NBF=   105
 NBsUse=   105 1.00D-06 EigRej= -1.00D+00 NBFU=   105
 Initial guess from the checkpoint file:  "checkpoint.chk"
 B after Tr=    -0.000000   -0.000000    0.000000
         Rot=    0.999999    0.000164    0.001296   -0.000979 Ang=   0.19 deg.
 ExpMin= 2.56D-02 ExpMax= 6.35D+04 ExpMxC= 2.17D+03 IAcc=3 IRadAn=         5 AccDes= 0.00D+00
 Harris functional with IExCor= 4639 and IRadAn=       5 diagonalized for initial guess.
 HarFok:  IExCor= 4639 AccDes= 0.00D+00 IRadAn=         5 IDoV= 1 UseB2=F ITyADJ=14
 ICtDFT=  3500011 ScaDFX=  1.000000  1.000000  1.000000  1.000000
 FoFCou: FMM=F IPFlag=           0 FMFlag=      100000 FMFlg1=           0
         NFxFlg=           0 DoJE=T BraDBF=F KetDBF=T FulRan=T
         wScrn=  0.000000 ICntrl=       500 IOpCl=  0 I1Cent=   200000004 NGrid=           0
         NMat0=    1 NMatS0=      1 NMatT0=    0 NMatD0=    1 NMtDS0=    0 NMtDT0=    0
 Petite list used in FoFCou.
 Keep R1 ints in memory in canonical form, NReq=35327257.
 Requested convergence on RMS density matrix=1.00D-08 within 128 cycles.
 Requested convergence on MAX density matrix=1.00D-06.
 Requested convergence on             energy=1.00D-06.
 No special actions if energy rises.
 SCF Done:  E(RwB97XD) =  -698.486220339     A.U. after   10 cycles
            NFock= 10  Conv=0.47D-08     -V/T= 2.0015
 DoSCS=F DFT=T ScalE2(SS,OS)=  1.000000  1.000000
 Range of M.O.s used for correlation:     1   105
 NBasis=   105 NAE=    21 NBE=    21 NFC=     0 NFV=     0
 NROrb=    105 NOA=    21 NOB=    21 NVA=    84 NVB=    84
 Symmetrizing basis deriv contribution to polar:
 IMax=3 JMax=2 DiffMx= 0.00D+00
 G2DrvN: will do     6 centers at a time, making    1 passes.
 Calling FoFCou, ICntrl=  3107 FMM=F I1Cent=   0 AccDes= 0.00D+00.
 End of G2Drv F.D. properties file   721 does not exist.
 End of G2Drv F.D. properties file   722 does not exist.
 End of G2Drv F.D. properties file   788 does not exist.
          IDoAtm=11111
          Differentiating once with respect to electric field.
                with respect to dipole field.
          Differentiating once with respect to nuclear coordinates.
 Keep R1 ints in memory in canonical form, NReq=35318136.
          There are    18 degrees of freedom in the 1st order CPHF.  IDoFFX=6 NUNeed=     3.
     15 vectors produced by pass  0 Test12= 9.80D-15 5.56D-09 XBig12= 1.42D+01 1.67D+00.
 AX will form    15 AO Fock derivatives at one time.
     15 vectors produced by pass  1 Test12= 9.80D-15 5.56D-09 XBig12= 1.83D+00 3.31D-01.
     15 vectors produced by pass  2 Test12= 9.80D-15 5.56D-09 XBig12= 1.18D-01 7.20D-02.
     15 vectors produced by pass  3 Test12= 9.80D-15 5.56D-09 XBig12= 1.49D-03 9.06D-03.
     15 vectors produced by pass  4 Test12= 9.80D-15 5.56D-09 XBig12= 2.33D-05 8.78D-04.
     15 vectors produced by pass  5 Test12= 9.80D-15 5.56D-09 XBig12= 1.82D-07 1.24D-04.
     15 vectors produced by pass  6 Test12= 9.80D-15 5.56D-09 XBig12= 1.14D-09 6.97D-06.
      6 vectors produced by pass  7 Test12= 9.80D-15 5.56D-09 XBig12= 8.36D-12 6.22D-07.
      3 vectors produced by pass  8 Test12= 9.80D-15 5.56D-09 XBig12= 5.41D-14 4.83D-08.
 InvSVY:  IOpt=1 It=  1 EMax= 1.11D-15
 Solved reduced A of dimension   114 with    15 vectors.
 Isotropic polarizability for W=    0.000000       31.23 Bohr**3.
 End of Minotr F.D. properties file   721 does not exist.
 End of Minotr F.D. properties file   722 does not exist.
 End of Minotr F.D. properties file   788 does not exist.
 Calling FoFJK, ICntrl=    100127 FMM=F ISym2X=0 I1Cent= 0 IOpClX= 0 NMat=1 NMatS=1 NMatT=0.
 ***** Axes restored to original set *****
 -------------------------------------------------------------------
 Center     Atomic                   Forces (Hartrees/Bohr)
 Number     Number              X              Y              Z
 -------------------------------------------------------------------
      1        6           0.000040756   -0.000527738   -0.000386394
      2        9           0.000001378    0.000000738    0.000625641
      3       17           0.000225852   -0.000008357   -0.000071758
      4        9          -0.000297998    0.000577706   -0.000184103
      5        1           0.000030012   -0.000042349    0.000016614
 -------------------------------------------------------------------
 Cartesian Forces:  Max     0.000625641 RMS     0.000298500
 -----------------------------------------------------------------------------------------------
                       Internal Coordinate Forces (Hartree/Bohr or radian)
  Cent   Atom   N1       Length/X         N2         Alpha/Y        N3         Beta/Z          J
 -----------------------------------------------------------------------------------------------
      1  C 
      2  F        1   0.000626(     1)
      3  Cl       1   0.000237(     2)      2  -0.000026(     5)
      4  F        1   0.000675(     3)      2  -0.000073(     6)      3   0.000054(     8)     0
      5  H        1   0.000014(     4)      2  -0.000047(     7)      3  -0.000092(     9)     0
 -----------------------------------------------------------------------------------------------
 Internal  Forces:  Max     0.000674598 RMS     0.000320153

 GradGradGradGradGradGradGradGradGradGradGradGradGradGradGradGradGradGrad
 Berny optimization.
 Search for a local minimum.
 Step number   2 out of a maximum of   20
 All quantities printed in internal units (Hartrees-Bohrs-Radians)
 Second derivative matrix not updated -- analytic derivatives used.
 DE= -4.56D-04 DEPred=-4.69D-04 R= 9.72D-01
 TightC=F SS=  1.41D+00  RLast= 6.24D-02 DXNew= 5.0454D-01 1.8710D-01
 Trust test= 9.72D-01 RLast= 6.24D-02 DXMaxT set to 3.00D-01
 The second derivative matrix:
                          r2        r3        a3        r4        a4
           r2           0.40671
           r3           0.04242   0.22252
           a3           0.06287   0.00352   0.38679
           r4           0.05434   0.04243  -0.03209   0.40677
           a4           0.07104  -0.02811   0.09897   0.00477   0.46129
           d4           0.00426  -0.04885   0.06884   0.00771   0.02166
           r5           0.01157   0.00452  -0.00095   0.01159  -0.00316
           a5           0.07010  -0.02666   0.06332  -0.03236   0.07267
           d5          -0.00212   0.04273  -0.04057  -0.05852   0.05451
                          d4        r5        a5        d5
           d4           0.34895
           r5           0.00778   0.35405
           a5          -0.04867   0.00394   0.27117
           d5          -0.13199  -0.00635   0.00912   0.22962
 ITU=  1  0
     Eigenvalues ---    0.11356   0.15449   0.25184   0.27635   0.34837
     Eigenvalues ---    0.35886   0.46576   0.49281   0.62584
 RFO step:  Lambda=-8.47142526D-07 EMin= 1.13557675D-01
 Quintic linear search produced a step of -0.03487.
 Variable       Old X    -DE/DX   Delta X   Delta X   Delta X     New X
                                 (Linear)    (Quad)   (Total)
    r2        2.52928   0.00063   0.00112   0.00030   0.00142   2.53070
    r3        3.35097   0.00024  -0.00083   0.00141   0.00059   3.35156
    a3        1.91068  -0.00003   0.00037  -0.00051  -0.00013   1.91055
    r4        2.52926   0.00067   0.00111   0.00032   0.00142   2.53069
    a4        1.88997  -0.00007  -0.00077   0.00046  -0.00031   1.88966
    d4        4.20125   0.00005  -0.00038   0.00061   0.00024   4.20149
    r5        2.06411   0.00001   0.00005  -0.00012  -0.00007   2.06404
    a5        1.92141  -0.00005  -0.00039   0.00024  -0.00015   1.92126
    d5        2.10053  -0.00009   0.00074  -0.00072   0.00001   2.10055
         Item               Value     Threshold  Converged?
 Maximum Force            0.000675     0.000002     NO 
 RMS     Force            0.000320     0.000001     NO 
 Maximum Displacement     0.001423     0.000006     NO 
 RMS     Displacement     0.000713     0.000004     NO 
 Predicted change in Energy=-9.914024D-07
 GradGradGradGradGradGradGradGradGradGradGradGradGradGradGradGradGradGrad

 ---------------------------------------------------------------------------------------------------
                            Z-MATRIX (ANGSTROMS AND DEGREES)
   CD    Cent   Atom    N1       Length/X        N2       Alpha/Y        N3        Beta/Z          J
 ---------------------------------------------------------------------------------------------------
      1      1  C 
      2      2  F        1   1.339187(     1)
      3      3  Cl       1   1.773567(     2)      2  109.466(     5)
      4      4  F        1   1.339182(     3)      2  108.269(     6)      3  240.728(     8)      0
      5      5  H        1   1.092245(     4)      2  110.080(     7)      3  120.353(     9)      0
 ---------------------------------------------------------------------------------------------------
                         Z-Matrix orientation:                         
 ---------------------------------------------------------------------
 Center     Atomic      Atomic             Coordinates (Angstroms)
 Number     Number       Type             X           Y           Z
 ---------------------------------------------------------------------
      1          6           0        0.000000    0.000000    0.000000
      2          9           0        0.000000    0.000000    1.339187
      3         17           0        1.672184    0.000000   -0.591050
      4          9           0       -0.621804    1.109290   -0.419814
      5          1           0       -0.518382   -0.885240   -0.375004
 ---------------------------------------------------------------------
                    Distance matrix (angstroms):
                    1          2          3          4          5
     1  C    0.000000
     2  F    1.339187   0.000000
     3  Cl   1.773567   2.553823   0.000000
     4  F    1.339182   2.170541   2.553865   0.000000
     5  H    1.092245   1.997704   2.372532   1.997713   0.000000
 Stoichiometry    CHClF2
 Framework group  C1[X(CHClF2)]
 Deg. of freedom     9
 Full point group                 C1      NOp   1
 Largest Abelian subgroup         C1      NOp   1
 Largest concise Abelian subgroup C1      NOp   1
                         Standard orientation:                         
 ---------------------------------------------------------------------
 Center     Atomic      Atomic             Coordinates (Angstroms)
 Number     Number       Type             X           Y           Z
 ---------------------------------------------------------------------
      1          6           0       -0.444118   -0.000006    0.366784
      2          9           0       -1.029656    1.085292   -0.155418
      3         17           0        1.279690   -0.000021   -0.050381
      4          9           0       -1.029742   -1.085249   -0.155423
      5          1           0       -0.555447    0.000008    1.453340
 ---------------------------------------------------------------------
 Rotational constants (GHZ):          10.2192846           4.8158208           3.4855131
 Basis read from rwf:  (5D, 7F)
 There are   113 symmetry adapted cartesian basis functions of A   symmetry.
 There are   105 symmetry adapted basis functions of A   symmetry.
   105 basis functions,   207 primitive gaussians,   113 cartesian basis functions
    21 alpha electrons       21 beta electrons
       nuclear repulsion energy       167.7298572500 Hartrees.
 NAtoms=    5 NActive=    5 NUniq=    5 SFac= 1.00D+00 NAtFMM=   60 NAOKFM=F Big=F
 Integral buffers will be    131072 words long.
 Raffenetti 2 integral format.
 Two-electron integral symmetry is turned on.
 Nuclear repulsion after empirical dispersion term =      167.7294145907 Hartrees.
 One-electron integrals computed using PRISM.
 NBasis=   105 RedAO= T EigKep=  1.26D-03  NBF=   105
 NBsUse=   105 1.00D-06 EigRej= -1.00D+00 NBFU=   105
 Initial guess from the checkpoint file:  "checkpoint.chk"
 B after Tr=     0.000000   -0.000000   -0.000000
         Rot=    1.000000    0.000019   -0.000021    0.000036 Ang=   0.01 deg.
 Keep R1 ints in memory in canonical form, NReq=35327257.
 Requested convergence on RMS density matrix=1.00D-08 within 128 cycles.
 Requested convergence on MAX density matrix=1.00D-06.
 Requested convergence on             energy=1.00D-06.
 No special actions if energy rises.
 SCF Done:  E(RwB97XD) =  -698.486221334     A.U. after    8 cycles
            NFock=  8  Conv=0.20D-08     -V/T= 2.0015
 DoSCS=F DFT=T ScalE2(SS,OS)=  1.000000  1.000000
 Range of M.O.s used for correlation:     1   105
 NBasis=   105 NAE=    21 NBE=    21 NFC=     0 NFV=     0
 NROrb=    105 NOA=    21 NOB=    21 NVA=    84 NVB=    84
 Symmetrizing basis deriv contribution to polar:
 IMax=3 JMax=2 DiffMx= 0.00D+00
 G2DrvN: will do     6 centers at a time, making    1 passes.
 Calling FoFCou, ICntrl=  3107 FMM=F I1Cent=   0 AccDes= 0.00D+00.
 End of G2Drv F.D. properties file   721 does not exist.
 End of G2Drv F.D. properties file   722 does not exist.
 End of G2Drv F.D. properties file   788 does not exist.
          IDoAtm=11111
          Differentiating once with respect to electric field.
                with respect to dipole field.
          Differentiating once with respect to nuclear coordinates.
 Keep R1 ints in memory in canonical form, NReq=35318136.
          There are    18 degrees of freedom in the 1st order CPHF.  IDoFFX=6 NUNeed=     3.
     15 vectors produced by pass  0 Test12= 9.80D-15 5.56D-09 XBig12= 1.42D+01 1.68D+00.
 AX will form    15 AO Fock derivatives at one time.
     15 vectors produced by pass  1 Test12= 9.80D-15 5.56D-09 XBig12= 1.83D+00 3.31D-01.
     15 vectors produced by pass  2 Test12= 9.80D-15 5.56D-09 XBig12= 1.18D-01 7.21D-02.
     15 vectors produced by pass  3 Test12= 9.80D-15 5.56D-09 XBig12= 1.50D-03 9.10D-03.
     15 vectors produced by pass  4 Test12= 9.80D-15 5.56D-09 XBig12= 2.34D-05 8.81D-04.
     15 vectors produced by pass  5 Test12= 9.80D-15 5.56D-09 XBig12= 1.83D-07 1.25D-04.
     15 vectors produced by pass  6 Test12= 9.80D-15 5.56D-09 XBig12= 1.15D-09 7.06D-06.
      6 vectors produced by pass  7 Test12= 9.80D-15 5.56D-09 XBig12= 8.45D-12 6.31D-07.
      3 vectors produced by pass  8 Test12= 9.80D-15 5.56D-09 XBig12= 5.45D-14 4.84D-08.
 InvSVY:  IOpt=1 It=  1 EMax= 8.88D-16
 Solved reduced A of dimension   114 with    15 vectors.
 Isotropic polarizability for W=    0.000000       31.24 Bohr**3.
 End of Minotr F.D. properties file   721 does not exist.
 End of Minotr F.D. properties file   722 does not exist.
 End of Minotr F.D. properties file   788 does not exist.
 Calling FoFJK, ICntrl=    100127 FMM=F ISym2X=0 I1Cent= 0 IOpClX= 0 NMat=1 NMatS=1 NMatT=0.
 ***** Axes restored to original set *****
 -------------------------------------------------------------------
 Center     Atomic                   Forces (Hartrees/Bohr)
 Number     Number              X              Y              Z
 -------------------------------------------------------------------
      1        6           0.000023009    0.000001919    0.000000870
      2        9          -0.000007474    0.000001913   -0.000010953
      3       17          -0.000014597    0.000004818    0.000003720
      4        9           0.000003607   -0.000010899    0.000005552
      5        1          -0.000004546    0.000002248    0.000000811
 -------------------------------------------------------------------
 Cartesian Forces:  Max     0.000023009 RMS     0.000008765
 -----------------------------------------------------------------------------------------------
                       Internal Coordinate Forces (Hartree/Bohr or radian)
  Cent   Atom   N1       Length/X         N2         Alpha/Y        N3         Beta/Z          J
 -----------------------------------------------------------------------------------------------
      1  C 
      2  F        1  -0.000011(     1)
      3  Cl       1  -0.000015(     2)      2   0.000005(     5)
      4  F        1  -0.000012(     3)      2  -0.000004(     6)      3  -0.000005(     8)     0
      5  H        1   0.000000(     4)      2  -0.000002(     7)      3   0.000010(     9)     0
 -----------------------------------------------------------------------------------------------
 Internal  Forces:  Max     0.000015003 RMS     0.000008609

 GradGradGradGradGradGradGradGradGradGradGradGradGradGradGradGradGradGrad
 Berny optimization.
 Search for a local minimum.
 Step number   3 out of a maximum of   20
 All quantities printed in internal units (Hartrees-Bohrs-Radians)
 Second derivative matrix not updated -- analytic derivatives used.
 DE= -9.95D-07 DEPred=-9.91D-07 R= 1.00D+00
 Trust test= 1.00D+00 RLast= 2.14D-03 DXMaxT set to 3.00D-01
 The second derivative matrix:
                          r2        r3        a3        r4        a4
           r2           0.40468
           r3           0.04234   0.22207
           a3           0.06277   0.00351   0.38630
           r4           0.05419   0.04233  -0.03201   0.40468
           a4           0.07085  -0.02803   0.09877   0.00476   0.46042
           d4           0.00425  -0.04873   0.06871   0.00766   0.02162
           r5           0.01152   0.00450  -0.00094   0.01152  -0.00312
           a5           0.07002  -0.02662   0.06328  -0.03227   0.07251
           d5          -0.00212   0.04269  -0.04053  -0.05840   0.05441
                          d4        r5        a5        d5
           d4           0.34846
           r5           0.00772   0.35416
           a5          -0.04858   0.00393   0.27083
           d5          -0.13177  -0.00631   0.00909   0.22934
 ITU=  0  1  0
     Eigenvalues ---    0.11338   0.15418   0.25137   0.27556   0.34812
     Eigenvalues ---    0.35814   0.46395   0.49177   0.62447
 RFO step:  Lambda= 0.00000000D+00 EMin= 1.13380620D-01
 Quintic linear search produced a step of -0.02036.
 Variable       Old X    -DE/DX   Delta X   Delta X   Delta X     New X
                                 (Linear)    (Quad)   (Total)
    r2        2.53070  -0.00001  -0.00003   0.00001  -0.00001   2.53068
    r3        3.35156  -0.00002  -0.00001  -0.00007  -0.00008   3.35147
    a3        1.91055   0.00000   0.00000   0.00003   0.00003   1.91058
    r4        2.53069  -0.00001  -0.00003   0.00002  -0.00001   2.53068
    a4        1.88966  -0.00000   0.00001  -0.00003  -0.00002   1.88963
    d4        4.20149  -0.00001  -0.00000  -0.00001  -0.00001   4.20148
    r5        2.06404   0.00000   0.00000   0.00000   0.00000   2.06405
    a5        1.92126  -0.00000   0.00000  -0.00002  -0.00002   1.92124
    d5        2.10055   0.00001  -0.00000   0.00006   0.00006   2.10061
         Item               Value     Threshold  Converged?
 Maximum Force            0.000015     0.000002     NO 
 RMS     Force            0.000009     0.000001     NO 
 Maximum Displacement     0.000082     0.000006     NO 
 RMS     Displacement     0.000038     0.000004     NO 
 Predicted change in Energy=-1.223921D-09
 GradGradGradGradGradGradGradGradGradGradGradGradGradGradGradGradGradGrad

 ---------------------------------------------------------------------------------------------------
                            Z-MATRIX (ANGSTROMS AND DEGREES)
   CD    Cent   Atom    N1       Length/X        N2       Alpha/Y        N3        Beta/Z          J
 ---------------------------------------------------------------------------------------------------
      1      1  C 
      2      2  F        1   1.339179(     1)
      3      3  Cl       1   1.773523(     2)      2  109.468(     5)
      4      4  F        1   1.339177(     3)      2  108.268(     6)      3  240.727(     8)      0
      5      5  H        1   1.092246(     4)      2  110.079(     7)      3  120.356(     9)      0
 ---------------------------------------------------------------------------------------------------
                         Z-Matrix orientation:                         
 ---------------------------------------------------------------------
 Center     Atomic      Atomic             Coordinates (Angstroms)
 Number     Number       Type             X           Y           Z
 ---------------------------------------------------------------------
      1          6           0        0.000000    0.000000    0.000000
      2          9           0        0.000000    0.000000    1.339179
      3         17           0        1.672125    0.000000   -0.591087
      4          9           0       -0.621818    1.109288   -0.419783
      5          1           0       -0.518440   -0.885216   -0.374987
 ---------------------------------------------------------------------
                    Distance matrix (angstroms):
                    1          2          3          4          5
     1  C    0.000000
     2  F    1.339179   0.000000
     3  Cl   1.773523   2.553807   0.000000
     4  F    1.339177   2.170513   2.553828   0.000000
     5  H    1.092246   1.997687   2.372527   1.997683   0.000000
 Stoichiometry    CHClF2
 Framework group  C1[X(CHClF2)]
 Deg. of freedom     9
 Full point group                 C1      NOp   1
 Largest Abelian subgroup         C1      NOp   1
 Largest concise Abelian subgroup C1      NOp   1
                         Standard orientation:                         
 ---------------------------------------------------------------------
 Center     Atomic      Atomic             Coordinates (Angstroms)
 Number     Number       Type             X           Y           Z
 ---------------------------------------------------------------------
      1          6           0       -0.444091   -0.000003    0.366778
      2          9           0       -1.029670    1.085267   -0.155416
      3         17           0        1.279674   -0.000010   -0.050381
      4          9           0       -1.029713   -1.085245   -0.155419
      5          1           0       -0.555464   -0.000004    1.453331
 ---------------------------------------------------------------------
 Rotational constants (GHZ):          10.2195518           4.8159302           3.4855957
 Basis read from rwf:  (5D, 7F)
 There are   113 symmetry adapted cartesian basis functions of A   symmetry.
 There are   105 symmetry adapted basis functions of A   symmetry.
   105 basis functions,   207 primitive gaussians,   113 cartesian basis functions
    21 alpha electrons       21 beta electrons
       nuclear repulsion energy       167.7318029599 Hartrees.
 NAtoms=    5 NActive=    5 NUniq=    5 SFac= 1.00D+00 NAtFMM=   60 NAOKFM=F Big=F
 Integral buffers will be    131072 words long.
 Raffenetti 2 integral format.
 Two-electron integral symmetry is turned on.
 Nuclear repulsion after empirical dispersion term =      167.7313603253 Hartrees.
 One-electron integrals computed using PRISM.
 NBasis=   105 RedAO= T EigKep=  1.26D-03  NBF=   105
 NBsUse=   105 1.00D-06 EigRej= -1.00D+00 NBFU=   105
 Initial guess from the checkpoint file:  "checkpoint.chk"
 B after Tr=    -0.000000   -0.000000    0.000000
         Rot=    1.000000    0.000000   -0.000001   -0.000006 Ang=   0.00 deg.
 Keep R1 ints in memory in canonical form, NReq=35327257.
 Requested convergence on RMS density matrix=1.00D-08 within 128 cycles.
 Requested convergence on MAX density matrix=1.00D-06.
 Requested convergence on             energy=1.00D-06.
 No special actions if energy rises.
 SCF Done:  E(RwB97XD) =  -698.486221335     A.U. after    5 cycles
            NFock=  5  Conv=0.69D-08     -V/T= 2.0015
 DoSCS=F DFT=T ScalE2(SS,OS)=  1.000000  1.000000
 Range of M.O.s used for correlation:     1   105
 NBasis=   105 NAE=    21 NBE=    21 NFC=     0 NFV=     0
 NROrb=    105 NOA=    21 NOB=    21 NVA=    84 NVB=    84
 Symmetrizing basis deriv contribution to polar:
 IMax=3 JMax=2 DiffMx= 0.00D+00
 G2DrvN: will do     6 centers at a time, making    1 passes.
 Calling FoFCou, ICntrl=  3107 FMM=F I1Cent=   0 AccDes= 0.00D+00.
 End of G2Drv F.D. properties file   721 does not exist.
 End of G2Drv F.D. properties file   722 does not exist.
 End of G2Drv F.D. properties file   788 does not exist.
          IDoAtm=11111
          Differentiating once with respect to electric field.
                with respect to dipole field.
          Differentiating once with respect to nuclear coordinates.
 Keep R1 ints in memory in canonical form, NReq=35318136.
          There are    18 degrees of freedom in the 1st order CPHF.  IDoFFX=6 NUNeed=     3.
     15 vectors produced by pass  0 Test12= 9.80D-15 5.56D-09 XBig12= 1.42D+01 1.68D+00.
 AX will form    15 AO Fock derivatives at one time.
     15 vectors produced by pass  1 Test12= 9.80D-15 5.56D-09 XBig12= 1.83D+00 3.31D-01.
     15 vectors produced by pass  2 Test12= 9.80D-15 5.56D-09 XBig12= 1.18D-01 7.20D-02.
     15 vectors produced by pass  3 Test12= 9.80D-15 5.56D-09 XBig12= 1.50D-03 9.10D-03.
     15 vectors produced by pass  4 Test12= 9.80D-15 5.56D-09 XBig12= 2.34D-05 8.81D-04.
     15 vectors produced by pass  5 Test12= 9.80D-15 5.56D-09 XBig12= 1.83D-07 1.25D-04.
     15 vectors produced by pass  6 Test12= 9.80D-15 5.56D-09 XBig12= 1.15D-09 7.06D-06.
      6 vectors produced by pass  7 Test12= 9.80D-15 5.56D-09 XBig12= 8.45D-12 6.31D-07.
      3 vectors produced by pass  8 Test12= 9.80D-15 5.56D-09 XBig12= 5.45D-14 4.84D-08.
 InvSVY:  IOpt=1 It=  1 EMax= 1.33D-15
 Solved reduced A of dimension   114 with    15 vectors.
 Isotropic polarizability for W=    0.000000       31.24 Bohr**3.
 End of Minotr F.D. properties file   721 does not exist.
 End of Minotr F.D. properties file   722 does not exist.
 End of Minotr F.D. properties file   788 does not exist.
 Calling FoFJK, ICntrl=    100127 FMM=F ISym2X=0 I1Cent= 0 IOpClX= 0 NMat=1 NMatS=1 NMatT=0.
 ***** Axes restored to original set *****
 -------------------------------------------------------------------
 Center     Atomic                   Forces (Hartrees/Bohr)
 Number     Number              X              Y              Z
 -------------------------------------------------------------------
      1        6           0.000002628   -0.000003373   -0.000000001
      2        9          -0.000002646    0.000000000   -0.000000022
      3       17          -0.000000005    0.000003379    0.000000020
      4        9           0.000000008   -0.000000012    0.000000005
      5        1           0.000000014    0.000000006   -0.000000001
 -------------------------------------------------------------------
 Cartesian Forces:  Max     0.000003379 RMS     0.000001564
 -----------------------------------------------------------------------------------------------
                       Internal Coordinate Forces (Hartree/Bohr or radian)
  Cent   Atom   N1       Length/X         N2         Alpha/Y        N3         Beta/Z          J
 -----------------------------------------------------------------------------------------------
      1  C 
      2  F        1  -0.000000(     1)
      3  Cl       1  -0.000000(     2)      2  -0.000000(     5)
      4  F        1  -0.000000(     3)      2   0.000000(     6)      3   0.000000(     8)     0
      5  H        1  -0.000000(     4)      2   0.000000(     7)      3  -0.000000(     9)     0
 -----------------------------------------------------------------------------------------------
 Internal  Forces:  Max     0.000000057 RMS     0.000000023

 GradGradGradGradGradGradGradGradGradGradGradGradGradGradGradGradGradGrad
 Berny optimization.
 Search for a local minimum.
 Step number   4 out of a maximum of   20
 All quantities printed in internal units (Hartrees-Bohrs-Radians)
 Second derivative matrix not updated -- analytic derivatives used.
 DE= -1.46D-09 DEPred=-1.22D-09 R= 1.19D+00
 Trust test= 1.19D+00 RLast= 1.13D-04 DXMaxT set to 3.00D-01
 The second derivative matrix:
                          r2        r3        a3        r4        a4
           r2           0.40470
           r3           0.04234   0.22212
           a3           0.06277   0.00351   0.38630
           r4           0.05420   0.04234  -0.03201   0.40471
           a4           0.07086  -0.02804   0.09878   0.00476   0.46045
           d4           0.00425  -0.04874   0.06871   0.00766   0.02163
           r5           0.01152   0.00450  -0.00094   0.01152  -0.00312
           a5           0.07002  -0.02663   0.06329  -0.03227   0.07251
           d5          -0.00212   0.04269  -0.04053  -0.05840   0.05442
                          d4        r5        a5        d5
           d4           0.34849
           r5           0.00772   0.35416
           a5          -0.04858   0.00393   0.27084
           d5          -0.13179  -0.00631   0.00908   0.22935
 ITU=  0  0  1  0
     Eigenvalues ---    0.11338   0.15420   0.25139   0.27557   0.34812
     Eigenvalues ---    0.35815   0.46398   0.49180   0.62451
 RFO step:  Lambda= 0.00000000D+00 EMin= 1.13382997D-01
 Quintic linear search produced a step of -0.00070.
 Variable       Old X    -DE/DX   Delta X   Delta X   Delta X     New X
                                 (Linear)    (Quad)   (Total)
    r2        2.53068  -0.00000   0.00000  -0.00000  -0.00000   2.53068
    r3        3.35147  -0.00000   0.00000  -0.00000   0.00000   3.35147
    a3        1.91058  -0.00000  -0.00000  -0.00000  -0.00000   1.91058
    r4        2.53068  -0.00000   0.00000  -0.00000  -0.00000   2.53068
    a4        1.88963   0.00000   0.00000   0.00000   0.00000   1.88963
    d4        4.20148   0.00000   0.00000  -0.00000   0.00000   4.20148
    r5        2.06405  -0.00000  -0.00000  -0.00000  -0.00000   2.06405
    a5        1.92124   0.00000   0.00000   0.00000   0.00000   1.92124
    d5        2.10061  -0.00000  -0.00000  -0.00000  -0.00000   2.10061
         Item               Value     Threshold  Converged?
 Maximum Force            0.000000     0.000002     YES
 RMS     Force            0.000000     0.000001     YES
 Maximum Displacement     0.000000     0.000006     YES
 RMS     Displacement     0.000000     0.000004     YES
 Predicted change in Energy=-8.151234D-15
 Optimization completed.
    -- Stationary point found.
                       ----------------------------
                       !   Optimized Parameters   !
                       ! (Angstroms and Degrees)  !
 ----------------------                            ----------------------
 !      Name          Value   Derivative information (Atomic Units)     !
 ------------------------------------------------------------------------
 !       r2          1.3392   -DE/DX =    0.0                           !
 !       r3          1.7735   -DE/DX =    0.0                           !
 !       a3        109.4682   -DE/DX =    0.0                           !
 !       r4          1.3392   -DE/DX =    0.0                           !
 !       a4        108.2681   -DE/DX =    0.0                           !
 !       d4        240.7269   -DE/DX =    0.0                           !
 !       r5          1.0922   -DE/DX =    0.0                           !
 !       a5        110.0791   -DE/DX =    0.0                           !
 !       d5        120.356    -DE/DX =    0.0                           !
 ------------------------------------------------------------------------
 GradGradGradGradGradGradGradGradGradGradGradGradGradGradGradGradGradGrad

 ---------------------------------------------------------------------------------------------------
                            Z-MATRIX (ANGSTROMS AND DEGREES)
   CD    Cent   Atom    N1       Length/X        N2       Alpha/Y        N3        Beta/Z          J
 ---------------------------------------------------------------------------------------------------
      1      1  C 
      2      2  F        1   1.339179(     1)
      3      3  Cl       1   1.773523(     2)      2  109.468(     5)
      4      4  F        1   1.339177(     3)      2  108.268(     6)      3  240.727(     8)      0
      5      5  H        1   1.092246(     4)      2  110.079(     7)      3  120.356(     9)      0
 ---------------------------------------------------------------------------------------------------
                         Z-Matrix orientation:                         
 ---------------------------------------------------------------------
 Center     Atomic      Atomic             Coordinates (Angstroms)
 Number     Number       Type             X           Y           Z
 ---------------------------------------------------------------------
      1          6           0        0.000000    0.000000    0.000000
      2          9           0        0.000000    0.000000    1.339179
      3         17           0        1.672125    0.000000   -0.591087
      4          9           0       -0.621818    1.109288   -0.419783
      5          1           0       -0.518440   -0.885216   -0.374987
 ---------------------------------------------------------------------
                    Distance matrix (angstroms):
                    1          2          3          4          5
     1  C    0.000000
     2  F    1.339179   0.000000
     3  Cl   1.773523   2.553807   0.000000
     4  F    1.339177   2.170513   2.553828   0.000000
     5  H    1.092246   1.997687   2.372527   1.997683   0.000000
 Stoichiometry    CHClF2
 Framework group  C1[X(CHClF2)]
 Deg. of freedom     9
 Full point group                 C1      NOp   1
 Largest Abelian subgroup         C1      NOp   1
 Largest concise Abelian subgroup C1      NOp   1
                         Standard orientation:                         
 ---------------------------------------------------------------------
 Center     Atomic      Atomic             Coordinates (Angstroms)
 Number     Number       Type             X           Y           Z
 ---------------------------------------------------------------------
      1          6           0       -0.444091   -0.000003    0.366778
      2          9           0       -1.029670    1.085267   -0.155416
      3         17           0        1.279674   -0.000010   -0.050381
      4          9           0       -1.029713   -1.085245   -0.155419
      5          1           0       -0.555464   -0.000004    1.453331
 ---------------------------------------------------------------------
 Rotational constants (GHZ):          10.2195518           4.8159302           3.4855957

 **********************************************************************

            Population analysis using the SCF Density.

 **********************************************************************

 Orbital symmetries:
       Occupied  (A) (A) (A) (A) (A) (A) (A) (A) (A) (A) (A) (A)
                 (A) (A) (A) (A) (A) (A) (A) (A) (A)
       Virtual   (A) (A) (A) (A) (A) (A) (A) (A) (A) (A) (A) (A)
                 (A) (A) (A) (A) (A) (A) (A) (A) (A) (A) (A) (A)
                 (A) (A) (A) (A) (A) (A) (A) (A) (A) (A) (A) (A)
                 (A) (A) (A) (A) (A) (A) (A) (A) (A) (A) (A) (A)
                 (A) (A) (A) (A) (A) (A) (A) (A) (A) (A) (A) (A)
                 (A) (A) (A) (A) (A) (A) (A) (A) (A) (A) (A) (A)
                 (A) (A) (A) (A) (A) (A) (A) (A) (A) (A) (A) (A)
 The electronic state is 1-A.
 Alpha  occ. eigenvalues -- -101.70295 -24.85734 -24.85732 -10.53279  -9.60396
 Alpha  occ. eigenvalues --   -7.35102  -7.34062  -7.34052  -1.41738  -1.35383
 Alpha  occ. eigenvalues --   -0.98713  -0.81166  -0.69586  -0.68901  -0.65016
 Alpha  occ. eigenvalues --   -0.55996  -0.54645  -0.53481  -0.47577  -0.42886
 Alpha  occ. eigenvalues --   -0.42730
 Alpha virt. eigenvalues --    0.03322   0.05925   0.07564   0.07614   0.08673
 Alpha virt. eigenvalues --    0.12257   0.13170   0.13445   0.14700   0.16904
 Alpha virt. eigenvalues --    0.17183   0.18506   0.20493   0.22890   0.24191
 Alpha virt. eigenvalues --    0.24933   0.26459   0.27620   0.27746   0.28938
 Alpha virt. eigenvalues --    0.31453   0.31621   0.32624   0.34420   0.39758
 Alpha virt. eigenvalues --    0.39924   0.41509   0.43530   0.44888   0.45158
 Alpha virt. eigenvalues --    0.49289   0.49433   0.51349   0.53475   0.65806
 Alpha virt. eigenvalues --    0.66922   0.68797   0.73229   0.76712   0.78827
 Alpha virt. eigenvalues --    0.81414   0.82959   0.83495   0.84486   0.84910
 Alpha virt. eigenvalues --    0.92642   0.94761   0.94932   0.98331   0.99140
 Alpha virt. eigenvalues --    1.00145   1.03348   1.03725   1.10922   1.14464
 Alpha virt. eigenvalues --    1.18940   1.38336   1.46286   1.46802   1.62460
 Alpha virt. eigenvalues --    1.65584   1.80050   1.87453   1.89062   1.97426
 Alpha virt. eigenvalues --    2.05613   2.10961   2.15050   2.22614   2.35362
 Alpha virt. eigenvalues --    2.46908   2.70375   2.78576   2.82037   2.83951
 Alpha virt. eigenvalues --    2.86386   2.87009   2.91417   3.00801   3.14917
 Alpha virt. eigenvalues --    3.24437   3.29224   3.56503   3.62927
          Condensed to atoms (all electrons):
               1          2          3          4          5
     1  C    4.274071  -0.126742   0.298032  -0.126744   0.373579
     2  F   -0.126742   9.992053  -0.105232  -0.075732  -0.110202
     3  Cl   0.298032  -0.105232  17.502229  -0.105228  -0.120429
     4  F   -0.126744  -0.075732  -0.105228   9.992053  -0.110206
     5  H    0.373579  -0.110202  -0.120429  -0.110206   0.657400
 Mulliken charges:
               1
     1  C    1.307804
     2  F   -0.574147
     3  Cl  -0.469373
     4  F   -0.574143
     5  H    0.309858
 Sum of Mulliken charges =  -0.00000
 Mulliken charges with hydrogens summed into heavy atoms:
               1
     1  C    1.617663
     2  F   -0.574147
     3  Cl  -0.469373
     4  F   -0.574143
 APT charges:
               1
     1  C    1.422117
     2  F   -0.538792
     3  Cl  -0.323840
     4  F   -0.538792
     5  H   -0.020693
 Sum of APT charges =  -0.00000
 APT charges with hydrogens summed into heavy atoms:
               1
     1  C    1.401424
     2  F   -0.538792
     3  Cl  -0.323840
     4  F   -0.538792
 Electronic spatial extent (au):  <R**2>=            324.7477
 Charge=             -0.0000 electrons
 Dipole moment (field-independent basis, Debye):
    X=             -0.0826    Y=             -0.0000    Z=              1.4624  Tot=              1.4647
 Quadrupole moment (field-independent basis, Debye-Ang):
   XX=            -28.9328   YY=            -30.3678   ZZ=            -26.8020
   XY=              0.0000   XZ=             -1.4585   YZ=             -0.0000
 Traceless Quadrupole moment (field-independent basis, Debye-Ang):
   XX=             -0.2319   YY=             -1.6669   ZZ=              1.8989
   XY=              0.0000   XZ=             -1.4585   YZ=             -0.0000
 Octapole moment (field-independent basis, Debye-Ang**2):
  XXX=             -5.2424  YYY=              0.0001  ZZZ=              0.7335  XYY=             -2.4487
  XXY=              0.0001  XXZ=             -1.4096  XZZ=             -4.9382  YZZ=              0.0000
  YYZ=             -0.6693  XYZ=              0.0000
 Hexadecapole moment (field-independent basis, Debye-Ang**3):
 XXXX=           -207.6873 YYYY=            -97.3264 ZZZZ=            -36.9845 XXXY=              0.0001
 XXXZ=             -2.0396 YYYX=              0.0002 YYYZ=             -0.0000 ZZZX=             -0.2994
 ZZZY=              0.0000 XXYY=            -54.5446 XXZZ=            -43.2416 YYZZ=            -22.7911
 XXYZ=              0.0000 YYXZ=              0.8995 ZZXY=              0.0001
 N-N= 1.677313603253D+02 E-N=-1.996459373966D+03  KE= 6.974388626181D+02
  Exact polarizability:      36.906      -0.000      29.012      -1.090      -0.000      27.807
 Approx polarizability:      38.995       0.000      31.757      -1.117      -0.000      30.119
 Rotating derivatives to standard orientation.
 Full mass-weighted force constant matrix:
 Low frequencies ---   -6.4716   -0.0038   -0.0020    0.0009    5.8823    7.7203
 Low frequencies ---  367.4765  413.7178  597.8847
 Diagonal vibrational polarizability:
       11.0014333       5.1324788       1.6281222
 Harmonic frequencies (cm**-1), IR intensities (KM/Mole), Raman scattering
 activities (A**4/AMU), depolarization ratios for plane and unpolarized
 incident light, reduced masses (AMU), force constants (mDyne/A),
 and normal coordinates:
                      1                      2                      3
                      A                      A                      A
 Frequencies --    367.4765               413.7178               597.8847
 Red. masses --     15.9908                19.4707                14.3161
 Frc consts  --      1.2723                 1.9635                 3.0152
 IR Inten    --      0.3997                 0.1253                 6.0032
  Atom  AN      X      Y      Z        X      Y      Z        X      Y      Z
     1   6     0.00   0.36   0.00     0.02   0.00  -0.14    -0.22   0.00  -0.40
     2   9    -0.52   0.15   0.05    -0.47  -0.23   0.01    -0.06   0.52   0.12
     3  17    -0.00  -0.30  -0.00     0.49  -0.00   0.05     0.15  -0.00   0.02
     4   9     0.52   0.15  -0.05    -0.47   0.23   0.01    -0.06  -0.52   0.12
     5   1    -0.00   0.44   0.00     0.42   0.00  -0.11    -0.17   0.00  -0.41
                      4                      5                      6
                      A                      A                      A
 Frequencies --    812.6451              1130.3573              1151.9823
 Red. masses --      5.3416                10.4261                 7.0586
 Frc consts  --      2.0784                 7.8488                 5.5190
 IR Inten    --    153.0253               233.8710               238.5752
  Atom  AN      X      Y      Z        X      Y      Z        X      Y      Z
     1   6     0.44  -0.00  -0.35     0.48  -0.00   0.53     0.00   0.58   0.00
     2   9    -0.04  -0.02   0.05    -0.16   0.23  -0.17     0.10  -0.20   0.12
     3  17    -0.12   0.00   0.08     0.00   0.00  -0.01    -0.00  -0.00  -0.00
     4   9    -0.04   0.02   0.05    -0.16  -0.23  -0.17    -0.10  -0.20  -0.12
     5   1     0.74  -0.00  -0.34     0.12  -0.00   0.51     0.00   0.73   0.00
                      7                      8                      9
                      A                      A                      A
 Frequencies --   1319.9479              1368.9426              3170.7756
 Red. masses --      1.1562                 1.1648                 1.0897
 Frc consts  --      1.1868                 1.2861                 6.4551
 IR Inten    --     63.2299                14.9595                 7.3252
  Atom  AN      X      Y      Z        X      Y      Z        X      Y      Z
     1   6    -0.10   0.00   0.03    -0.00  -0.11   0.00     0.01   0.00  -0.09
     2   9     0.01   0.01  -0.02    -0.00   0.01   0.02     0.00   0.00   0.00
     3  17    -0.00  -0.00   0.01    -0.00   0.00   0.00    -0.00   0.00   0.00
     4   9     0.01  -0.01  -0.02     0.00   0.01  -0.02     0.00  -0.00   0.00
     5   1     0.98  -0.00   0.14     0.00   0.99   0.00    -0.09  -0.00   0.99

 -------------------
 - Thermochemistry -
 -------------------
 Temperature   298.150 Kelvin.  Pressure   1.00000 Atm.
 Atom     1 has atomic number  6 and mass  12.00000
 Atom     2 has atomic number  9 and mass  18.99840
 Atom     3 has atomic number 17 and mass  34.96885
 Atom     4 has atomic number  9 and mass  18.99840
 Atom     5 has atomic number  1 and mass   1.00783
 Molecular mass:    85.97348 amu.
 Principal axes and moments of inertia in atomic units:
                           1         2         3
     Eigenvalues --   176.59690 374.74406 517.77124
           X            0.99994  -0.00000  -0.01102
           Y            0.00000   1.00000  -0.00000
           Z            0.01102   0.00000   0.99994
 This molecule is an asymmetric top.
 Rotational symmetry number  1.
 Rotational temperatures (Kelvin)      0.49046     0.23113     0.16728
 Rotational constants (GHZ):          10.21955     4.81593     3.48560
 Zero-point vibrational energy      61809.4 (Joules/Mol)
                                   14.77281 (Kcal/Mol)
 Warning -- explicit consideration of   3 degrees of freedom as
           vibrations may cause significant error
 Vibrational temperatures:    528.72   595.25   860.22  1169.22  1626.33
          (Kelvin)           1657.45  1899.11  1969.60  4562.04
 
 Zero-point correction=                           0.023542 (Hartree/Particle)
 Thermal correction to Energy=                    0.027310
 Thermal correction to Enthalpy=                  0.028254
 Thermal correction to Gibbs Free Energy=        -0.003634
 Sum of electronic and zero-point Energies=           -698.462679
 Sum of electronic and thermal Energies=              -698.458911
 Sum of electronic and thermal Enthalpies=            -698.457967
 Sum of electronic and thermal Free Energies=         -698.489855
 
                     E (Thermal)             CV                S
                      KCal/Mol        Cal/Mol-Kelvin    Cal/Mol-Kelvin
 Total                   17.137             11.357             67.115
 Electronic               0.000              0.000              0.000
 Translational            0.889              2.981             39.268
 Rotational               0.889              2.981             25.042
 Vibrational             15.360              5.396              2.805
 Vibration     1          0.740              1.539              1.090
 Vibration     2          0.777              1.440              0.914
 Vibration     3          0.956              1.036              0.453
                       Q            Log10(Q)             Ln(Q)
 Total Bot       0.469286D+02          1.671438          3.848628
 Total V=0       0.316215D+13         12.499982         28.782273
 Vib (Bot)       0.226029D-10        -10.645836        -24.512944
 Vib (Bot)    1  0.496281D+00         -0.304272         -0.700613
 Vib (Bot)    2  0.426447D+00         -0.370135         -0.852268
 Vib (Bot)    3  0.250289D+00         -0.601557         -1.385137
 Vib (V=0)       0.152303D+01          0.182708          0.420701
 Vib (V=0)    1  0.120448D+01          0.080800          0.186050
 Vib (V=0)    2  0.115716D+01          0.063393          0.145967
 Vib (V=0)    3  0.105915D+01          0.024956          0.057463
 Electronic      0.100000D+01          0.000000          0.000000
 Translational   0.313329D+08          7.496001         17.260179
 Rotational      0.662634D+05          4.821273         11.101392
 ***** Axes restored to original set *****
 -------------------------------------------------------------------
 Center     Atomic                   Forces (Hartrees/Bohr)
 Number     Number              X              Y              Z
 -------------------------------------------------------------------
      1        6           0.000002628   -0.000003373   -0.000000001
      2        9          -0.000002646    0.000000000   -0.000000022
      3       17          -0.000000005    0.000003379    0.000000020
      4        9           0.000000008   -0.000000012    0.000000005
      5        1           0.000000014    0.000000006   -0.000000001
 -------------------------------------------------------------------
 Cartesian Forces:  Max     0.000003379 RMS     0.000001564
 -----------------------------------------------------------------------------------------------
                       Internal Coordinate Forces (Hartree/Bohr or radian)
  Cent   Atom   N1       Length/X         N2         Alpha/Y        N3         Beta/Z          J
 -----------------------------------------------------------------------------------------------
      1  C 
      2  F        1  -0.000000(     1)
      3  Cl       1  -0.000000(     2)      2  -0.000000(     5)
      4  F        1  -0.000000(     3)      2   0.000000(     6)      3   0.000000(     8)     0
      5  H        1  -0.000000(     4)      2   0.000000(     7)      3  -0.000000(     9)     0
 -----------------------------------------------------------------------------------------------
 Internal  Forces:  Max     0.000000057 RMS     0.000000023

 ----------------------------------------------------------------------

 Electric dipole moment (input orientation):
 (Debye = 10**-18 statcoulomb cm , SI units = C m)
                  (au)            (Debye)         (10**-30 SI)
   Tot        0.576264D+00      0.146472D+01      0.488577D+01
   x         -0.251310D+00     -0.638766D+00     -0.213069D+01
   y         -0.474088D+00     -0.120501D+01     -0.401949D+01
   z         -0.210153D+00     -0.534156D+00     -0.178175D+01

 Dipole polarizability, Alpha (input orientation).
 (esu units = cm**3 , SI units = C**2 m**2 J**-1)
 Alpha(0;0):
               (au)            (10**-24 esu)      (10**-40 SI)
   iso        0.312417D+02      0.462954D+01      0.515106D+01
   aniso      0.876651D+01      0.129906D+01      0.144540D+01
   xx         0.356335D+02      0.528034D+01      0.587518D+01
   yx        -0.107569D+01     -0.159401D+00     -0.177358D+00
   yy         0.281252D+02      0.416772D+01      0.463721D+01
   zx        -0.301899D+01     -0.447368D+00     -0.497765D+00
   zy        -0.179041D+00     -0.265312D-01     -0.295199D-01
   zz         0.299663D+02      0.444055D+01      0.494078D+01

 ----------------------------------------------------------------------

 Dipole orientation:
     6          0.00000000         -0.00000000          0.00000000
     9         -1.10363431          2.08197232         -0.92289413
    17          3.20661659         -0.08820930         -0.97067153
     9         -1.21646540         -2.01815007         -0.92282789
     1         -0.09435907          0.00262688          2.06188702

 Electric dipole moment (dipole orientation):
 (Debye = 10**-18 statcoulomb cm , SI units = C m)
                  (au)            (Debye)         (10**-30 SI)
   Tot        0.576264D+00      0.146472D+01      0.488577D+01
   x          0.000000D+00      0.000000D+00      0.000000D+00
   y          0.000000D+00      0.000000D+00      0.000000D+00
   z          0.576264D+00      0.146472D+01      0.488577D+01

 Dipole polarizability, Alpha (dipole orientation).
 (esu units = cm**3 , SI units = C**2 m**2 J**-1)
 Alpha(0;0):
               (au)            (10**-24 esu)      (10**-40 SI)
   iso        0.312417D+02      0.462954D+01      0.515106D+01
   aniso      0.876651D+01      0.129906D+01      0.144540D+01
   xx         0.367487D+02      0.544559D+01      0.605904D+01
   yx        -0.212782D+00     -0.315310D-01     -0.350830D-01
   yy         0.290179D+02      0.430001D+01      0.478441D+01
   zx        -0.159499D+01     -0.236353D+00     -0.262979D+00
   zy         0.438313D-01      0.649513D-02      0.722681D-02
   zz         0.279584D+02      0.414301D+01      0.460972D+01

 ----------------------------------------------------------------------
 Unable to Open any file for archive entry.
 1\1\GINC-GADI-CPU-CLX-1830\Freq\RwB97XD\Gen\C1H1Cl1F2\PK8622\27-Jul-20
 20\1\\# wB97xD/Gen Freq=(anharmonic,ReadAnharm) Opt=(VeryTight,ZMatrix
 ,CalcAll) Int=UltraFine\\CFC-22 - HClF2 ANHARMONIC FREQUENCIES\\0,1\C\
 F,1,r2\Cl,1,r3,2,a3\F,1,r4,2,a4,3,d4,0\H,1,r5,2,a5,3,d5,0\\r2=1.339179
 2\r3=1.77352335\a3=109.46823484\r4=1.33917691\a4=108.26808485\d4=240.7
 2693876\r5=1.09224645\a5=110.07907852\d5=120.35604251\\Version=ES64L-G
 16RevC.01\State=1-A\HF=-698.4862213\RMSD=6.858e-09\RMSF=1.564e-06\Zero
 Point=0.023542\Thermal=0.0273103\ETot=-698.4589111\HTot=-698.4579669\G
 Tot=-698.4898552\Dipole=-0.2513098,-0.4740882,-0.2101533\DipoleDeriv=1
 .7044766,-0.3223057,-0.2713165,-0.4556602,1.0401136,-0.136465,-0.35542
 06,-0.1836042,1.5217615,-0.3437319,0.0141581,0.0927685,0.0146335,-0.23
 90335,-0.029942,0.2464524,0.0859459,-1.0336101,-0.6661089,0.0578087,0.
 2333857,-0.0388223,-0.1186992,0.0076202,0.1724411,-0.0265381,-0.186712
 8,-0.6157116,0.2912902,-0.0686909,0.4725498,-0.6847418,0.1808942,-0.10
 77571,0.1292471,-0.3159232,-0.0789242,-0.0409512,0.0138532,0.0072993,0
 .0023609,-0.0221075,0.0442842,-0.0050508,0.0144845\Polar=35.6335291,-1
 .0756934,28.1251613,-3.0189918,-0.1790412,29.9663257\PG=C01 [X(C1H1Cl1
 F2)]\NImag=0\\0.41575742,0.07073476,0.61239114,0.06229047,0.06745957,0
 .48628970,-0.06899508,-0.00614743,0.00286579,0.06614215,-0.00524289,-0
 .07913931,-0.02571418,-0.00678395,0.06609945,-0.01940230,-0.03886908,-
 0.29353705,0.00369829,-0.00008165,0.40470175,-0.12379516,-0.03034433,0
 .01323349,-0.01103913,0.00046724,0.03367430,0.20060593,-0.01887499,-0.
 04340113,-0.00037608,0.00258013,0.00796588,0.00068893,-0.00252512,0.03
 155447,0.02046670,0.00367805,-0.03713911,0.03811066,0.00207929,-0.0317
[...]
 .00694247,-0.00145057,0.00086357,-0.00146200,0.00121339,0.00160236,0.0
 0144780,0.00640732,-0.00073023,0.00062198,0.00163224,-0.00244154,0.006
 30205,0.00002618,-0.00345460,-0.00847863,-0.00184365,0.00768327,0.0586
 2720,-0.13914752,0.04446745,0.00007620,0.00072517,0.00059537,0.0055998
 9,-0.00516242,0.00001737,-0.05949451,-0.13116765,0.24334022,-0.0793710
 6,-0.00057808,-0.00050710,0.00049495,-0.00574209,-0.00188648,0.0003164
 4,0.14237021,-0.25697291,0.04727896,-0.08505731,0.01099624,-0.00022531
 ,0.00003287,0.00043089,-0.00052460,0.00150477,-0.00105667,-0.04519486,
 0.08046456,-0.00477555,0.00311468,0.00298242,0.00397057,0.00377129,-0.
 00159494,-0.00221917,0.00058137,-0.00100773,0.00153723,-0.00480878,-0.
 00488239,-0.00133419,-0.00265855,-0.00320279,-0.00954003,-0.00039716,-
 0.00240338,0.00094845,-0.00530613,-0.00011102,0.00015078,-0.00013121,0
 .00121455,0.01602627,0.00305511,0.00450264,-0.00758547,0.00711908,0.01
 147739,0.00642438,-0.00512400,-0.01270497,-0.01033894,-0.00015533,0.00
 035308,-0.00073047,0.00011468,-0.00190490,-0.00559491,-0.00195444,0.00
 277940,0.01023994,-0.14913485,-0.06862584,0.09935197,0.02732545,0.0550
 2290,0.07564502,0.00035799,-0.00206233,0.00288666,-0.00049472,0.005351
 01,-0.00753019,0.00468328,-0.00682035,0.00475338,0.00389463,0.00561517
 ,-0.02054757,-0.01498398,-0.01119355,-0.00118325,0.04324624,-0.0097319
 7,-0.02058261,0.00118226,0.00071404,0.00372891,-0.01805569,-0.00448046
 ,0.00109957,0.00077441,0.00034024,0.00012026,-0.00029417,0.01523045,0.
 00182814,-0.01727059,0.00263108,0.01014656,0.00035263,0.00114767,-0.00
 278303,0.01453428,-0.00163809,-0.01028158,-0.00804820,0.00792666,-0.00
 961478,0.00096872,-0.00227968,0.00302456,-0.00120546,0.00165428,0.0000
 2320,0.01113820,0.01151766,-0.00959656,0.00200447,0.00058866,-0.002882
 11,-0.00442007,0.00389876,-0.00030542,-0.00130656,-0.01087235,-0.01780
 968,-0.00368254,0.00496364,-0.01005909,-0.00223874,-0.00314371,0.00106
 435,-0.00170228,0.00106091,0.00003075,0.00340352,0.00325182,0.00973461
 ,0.11357882,0.07249348,-0.00001471,-0.00201425,0.00303498,0.00433588,-
 0.02516735,-0.01274451,0.00236047,-0.00285325,-0.00513273,0.00422004,-
 0.08354397,0.05623763,-0.08332479,-0.06248505,0.00795378,0.00553867,0.
 01029263,-0.01011128,-0.00274255,-0.00083410,0.00357109,0.03059377,-0.
 00613266,-0.05765122,0.04993489,-0.01026695,-0.06823279,-0.05518492,0.
 01398342,0.00850632,0.02344950,0.00402170,0.00009694,0.00288730,0.0031
 6350,0.00047035,-0.00077061,-0.01090167,0.05915918,0.02961874,0.001479
 02,-0.05091983,0.17693537,-0.02943042,-0.08401282,-0.17841196,0.003498
 21,0.00238351,-0.00434464,-0.00654504,0.00396686,0.00054530,-0.0077304
 4,0.00488778,0.00911469,-0.00798204,-0.01465614,0.10134396,0.01306445,
 0.02615618,-0.07228469,0.00076176,-0.00069481,0.00057714,0.00168210,-0
 .00061234,0.00123070,-0.00169005,0.00017215,-0.00148501,0.00328665,0.0
 0187070,-0.00030974,0.00019582,0.00064911,0.00306298,0.00182424,-0.001
 38945,0.00072686,-0.00140977,0.00195531,0.00135746,-0.00263061,-0.0019
 9523,-0.00137496,-0.03372412,0.03730401,-0.02040159,-0.00006618,0.0022
 3965,0.00129335,-0.00152630,0.00017211,-0.00122802,0.03423827,0.043036
 79,-0.05900423,0.03230640,-0.00102166,-0.00196221,0.00149228,-0.000419
 67,-0.00198857,0.00061630,-0.03766004,0.01967711,-0.02142159,0.0268476
 9,-0.01266361,-0.00076376,0.00033938,0.00202838,0.00260482,-0.00047435
 ,0.00078509,0.01611858,-0.03117350,0.01580090,0.02798513,0.01192713,0.
 05359951,0.00143091,-0.01048194,-0.00760646,0.00077248,-0.00286407,0.0
 0344416,0.00107833,-0.00393542,0.00346194,-0.03126685,0.00374404,-0.11
 699144,0.05615021,-0.00812032,-0.00738804,-0.01318814,0.00107771,0.000
 72034,0.00081306,-0.00205573,0.04327790,0.00446077,0.00535430,0.080381
 24,0.05700981,0.07321072,0.08900475,-0.00654627,-0.02072044,-0.0324451
 1,-0.00178206,-0.00101290,-0.00149446,0.00421767,-0.00324148,-0.005950
 76,-0.05289915,-0.04823591,-0.04911442,0.15271627,0.55184852,0.7483666
 4,0.23022058,0.39071591,-0.01549737,-0.00667404,-0.00774255,0.00101014
 ,0.00053388,-0.00755250,-0.01411525,0.00331928,0.00257044,0.00364710,-
 0.02509915,-0.03753688,0.03217526,0.01007893,0.01507259,-0.00580777,0.
 01041348,-0.02555595,-0.02030304,-0.00008487,0.00145389,0.00464735,0.0
 0051492,0.00084678,-0.00678595,-0.00367802,-0.00039613,-0.00051802,0.0
 0099122,0.00482949,0.00013555,-0.00365208,0.00565530,0.00342898,-0.000
 42859,-0.00091646,-0.00156594,0.00289811,-0.00168308,-0.00198865,0.011
 32215,-0.00648009,0.00797276,-0.00114670,-0.00045327,-0.00059685,-0.00
 183001,-0.00089508,0.00002452,-0.01123054,-0.04701861,-0.00323500,-0.0
 2992662,0.00157808,0.00049919,0.00540978,0.00477526,0.00000089,-0.0011
 3600,0.01004256,0.01442787,0.00863630,-0.00333365,0.00329885,-0.000341
 87,-0.00079129,-0.00185551,-0.00030863,-0.00038527,-0.00033981,-0.0063
 8641,0.00621551,-0.00482389,-0.16777785,-0.51206992,-0.21890043,0.0073
 7174,0.00398143,0.01096973,-0.00901351,-0.00438505,0.00115804,0.002885
 11,0.03062271,-0.00159938,0.16653452,-0.49812418,-0.72423044,-0.360430
 55,0.00399016,0.01048699,0.01606329,0.01449731,0.00716753,-0.00191975,
 -0.00221413,-0.01169294,-0.00170530,0.48185083,0.71826887,-0.21010564,
 -0.35550067,-0.02340572,-0.01031860,-0.01668412,-0.02294604,0.01306622
 ,0.00475515,0.00046543,-0.00101402,0.01943733,0.00372035,0.20837204,0.
 34799231,0.04216598,-0.00425788,0.00380826,-0.00637682,0.00031369,0.00
 099963,-0.00952127,-0.00032002,0.00020983,-0.00044651,0.00249596,0.000
 13419,-0.00016225,0.00078987,-0.00012508,-0.00071217,-0.00124104,0.000
 96562,0.01003414,-0.00234074,0.00070120,-0.01024472,0.00188524,0.00042
 229,-0.00062744,-0.00131609,0.00014539,0.00233338,0.00166095,0.0010992
 5,-0.00034202,-0.00017753,0.00020262,0.00058172,-0.00017133,-0.0026960
 5,0.00032409,-0.00020609,0.00006043,-0.00056894,0.00130923,-0.00014516
 ,-0.00195254,-0.00178551,0.00024776,0.00223776,0.00245444,-0.00405435,
 0.00108261,-0.00068209,-0.00034578,0.00095974,-0.00258205,0.00119104,0
 .00073141,0.00101625,-0.00466455,0.00717703,-0.00155282,-0.00041528,0.
 00033723,-0.00146560,0.00201590,-0.00050951,-0.00018037,0.00313606,-0.
 00762012,0.00145244,-0.00197004,-0.00002632,0.00113065,-0.00156514,0.0
 0162521,0.00018349,0.00011623,0.00040121,-0.00293425,0.00353885,-0.001
 90630,0.00023822,-0.00038603,-0.00032234,-0.00017773,0.00019128,0.0002
 8866,0.00035181,0.00020327,-0.00004889,-0.00020656,-0.00007213,0.00016
 766,-0.00020574,-0.00037716,-0.00029594,-0.00005914,0.00012790,-0.0000
 4451,-0.00002990,0.00011261,-0.00005405,0.00001740,0.00007302,0.000615
 36,-0.00011989,0.00006362,-0.00022086,-0.00031900,-0.00005564,0.000082
 38,0.00034738,0.00021924,0.00053793,-0.00010377,-0.00001507,-0.0001174
 5,0.00016048,-0.00034006,-0.00009383,-0.00008509,0.00019153,-0.0004090
 4,0.01618588,0.00048683,-0.01135188,-0.00994516,0.00070395,-0.00870363
 ,-0.00045205,-0.00020039,0.00124825,0.00117716,-0.00009450,0.00028608,
 0.00070001,-0.00043010,-0.00001201,0.00154432,0.00022949,0.00879915,-0
 .00211726,-0.00298274,-0.00437049,-0.01651848,-0.00010454,0.00609178,-
 0.00039693,-0.00019637,0.00146209,0.01888989,-0.00011521,0.00113141,0.
 00021228,-0.00027667,0.00051147,0.00042800,-0.00148049,-0.00076373,0.0
 0607747,0.00020723,-0.00116424,0.00146053,0.00038368,-0.00286049,-0.00
 694852,-0.00115345,0.00363118,0.00035580,-0.00280390,0.00125998,0.0001
 3907,0.00071018,-0.00097457,-0.00222276,0.00175602,-0.00056533,0.00210
 108,-0.00275483,0.00710062,-0.00280901,0.00088320,-0.00076948,0.002021
 00,0.00181053,-0.00091408,0.00051516,0.00055738,-0.00644190,0.00107096
 ,-0.00228305,0.00124573,-0.00089243,0.00139435,-0.00252152,-0.00049142
 ,0.00051755,0.00038015,0.00017415,0.00038610,0.00107879,0.00042885,0.0
 0262200,0.00134515,-0.00046725,0.00001079,0.00008542,0.00024834,0.0001
 1651,-0.00002401,-0.00037322,-0.00049627,0.00013875,0.00016328,0.00247
 772,0.00283378,0.00119276,0.00002397,-0.00001606,0.00030424,-0.0000289
 7,0.00003536,0.00004747,-0.00021968,0.00102482,-0.00001496,-0.00225303
 ,-0.00387791,0.00125240,0.00114238,-0.00017700,0.00030090,0.00050469,0
 .00095336,-0.00011378,-0.00000430,0.00001361,0.00010578,-0.00011325,-0
 .00018317,-0.00154531,-0.00152952,-0.00060680,0.00465290,0.00620768,-0
 .00620956,-0.00805532,0.01226529,-0.01850185,0.00063589,-0.00011982,0.
 00118242,-0.00081364,-0.00036442,0.00126197,-0.00478858,-0.00481605,0.
 00429795,0.00206804,-0.00598107,0.01336373,0.00460799,-0.00627545,0.00
 206129,-0.00861692,-0.00149093,0.00182037,-0.00063068,0.00082612,-0.00
 020493,0.00898839,-0.00076542,-0.00039342,0.00055412,0.00006676,-0.000
 05400,-0.00007971,0.00035145,0.00061308,0.00227243,0.00080925,-0.00113
 931,0.00049312,-0.00068080,0.00004443,-0.00280626,-0.00001815,0.001432
 58,0.00354594,-0.00421012,0.00485171,0.00084294,0.00427301,-0.00651158
 ,-0.00023399,0.00013691,0.00009602,-0.00400375,-0.00411681,0.00599386,
 -0.00730648,0.00460385,-0.00525802,0.01165695,0.00008227,-0.00013918,-
 0.00003343,-0.00026180,-0.00177672,0.00387842,-0.00616641,0.00577426,-
 0.00643627,0.01059555,-0.01608625,0.00123075,-0.00038632,-0.00027370,0
 .00174746,-0.00437504,0.01128101,-0.00021782,-0.00038681,0.00020083,-0
 .00003451,0.00008135,0.00004048,0.00049343,0.00021039,-0.00005517,-0.0
 0015116,-0.00030751,-0.00042037,-0.00008995,-0.00096102,-0.00065284,-0
 .00072435,0.00026526,-0.00024790,0.00067928,0.00023118,-0.00002596,-0.
 00007685,0.00006200,0.00118003,0.00033222,0.00040258,-0.00025333,-0.00
 016357,-0.00092706,0.00050317,0.00015274,0.00114928,0.00061681,-0.0000
 3978,-0.00006992,-0.00006360,-0.00018361,0.00005799,-0.00069533,0.0002
 3422,-0.00021030,-0.00036105,0.09823611,-0.00845229,-0.05057329,-0.057
 68587,0.00251878,-0.02779346,-0.00328514,-0.00119612,-0.00461552,0.005
 01797,-0.00293152,0.00015706,0.00119194,0.00095661,0.00141371,-0.00478
 824,0.00360519,0.04006661,0.00288485,-0.00243498,-0.04236766,-0.104536
 18,0.02298288,0.05363078,-0.00045809,0.00092875,0.00057025,0.11052943,
 0.02632615,0.01552382,-0.00340661,-0.00063323,-0.00051807,0.00016748,-
 0.02043664,-0.01605540,0.05573346,-0.00222601,-0.01494003,-0.00082761,
 -0.00036337,0.00166882,-0.05551174,0.00343914,0.01174576,0.00837158,-0
 .02000228,0.00540060,-0.00031793,0.00095416,0.00067109,0.00018543,-0.0
 0177871,0.00004346,-0.00663622,-0.01957864,0.02630854,-0.00498484,0.00
 061454,-0.00123353,-0.00165380,0.00012181,0.00089177,-0.00090977,0.019
 77114,-0.02860291,0.00475396,-0.00786090,0.00231183,0.00047481,-0.0003
 3420,-0.00092970,0.00082124,-0.00021747,-0.00039150,-0.00621988,0.0082
 2889,-0.00074254,0.00121363,0.00666781,0.00327001,-0.00095681,0.000092
 00,0.00066205,-0.00572053,-0.00347746,0.00056255,-0.00160288,-0.000928
 86,0.00016986,0.00706658,0.00463630,0.00858387,0.00468072,0.00025820,0
 .00018085,0.00031610,-0.00359669,0.00015820,0.00006006,0.00105568,0.00
 263610,0.00018367,-0.00235349,-0.01155902,0.00198670,0.00396293,0.0003
 5505,0.00208348,0.00194060,0.00156194,0.00048957,0.00001750,0.00191711
 ,0.00010472,-0.00068049,-0.00024812,-0.00466446,-0.00524055,-0.0035859
 8,-0.00461342,-0.07441743,0.04364718,0.06026125,-0.13452435,0.19279115
 ,0.02897407,0.00131979,-0.01491296,-0.02882604,0.00384607,0.02504941,0
 .04511714,-0.00014945,-0.02869843,-0.02098694,0.04755151,-0.16789035,0
 .01716992,-0.04431044,0.17193147,-0.01398698,-0.00286853,0.00257444,-0
 .00150336,-0.00088977,0.00427068,0.01924848,-0.00305122,-0.00213203,0.
 00075029,0.00037787,0.00036794,0.00027255,0.00167567,0.00090389,0.0024
 5623,0.00068467,-0.00205261,0.00078897,0.00056189,-0.00132533,-0.00519
 954,-0.00101363,0.00277995,-0.01116195,0.06884671,-0.05221907,0.000056
 75,-0.00152484,0.00226111,-0.00351259,0.00030514,0.00142381,0.01307644
 ,0.06573072,-0.07818556,0.08426608,-0.00042890,0.00336642,-0.00115322,
 0.00266186,0.00053403,-0.00062842,-0.06852618,0.08203442,-0.04651186,0
 .08162275,-0.02433053,-0.00079816,0.00121205,0.00362419,-0.00137626,0.
 00004535,0.00051335,0.04943526,-0.08395078,0.01911052,0.00078828,0.007
 11945,0.00429634,0.00129860,-0.00128201,-0.00271476,-0.00024540,0.0006
 9268,0.00053062,0.00154136,0.00056250,-0.00074898,-0.00338284,0.007891
 86,0.01162101,0.00439084,-0.00111931,-0.00008532,-0.00236040,-0.000579
 10,0.00032656,0.00039562,0.00089917,-0.00774932,0.00107064,-0.00709262
 ,-0.00411294,0.00478132,0.00466543,0.00148234,-0.00224776,-0.00258064,
 -0.00633996,-0.00026923,-0.00005443,0.00008482,-0.00090112,0.00146634,
 0.00108247,-0.00136322,-0.00349670,0.00369034,-0.00459393,-0.12959911,
 0.14357607,0.01078371,-0.02579980,0.23690354,0.03783497,-0.00131670,0.
 02250398,-0.04022711,-0.00240246,0.03565205,-0.02644784,0.00239068,-0.
 03433719,0.02431111,-0.03413864,-0.26372235,-0.02239264,0.03188129,0.2
 6882322,0.00628130,-0.00144534,-0.00456883,0.00012240,0.00056269,0.003
 01190,-0.00532549,0.00055377,-0.00291250,0.00055589,0.00038533,0.00070
 795,0.00036436,-0.00149201,0.00148490,-0.00331631,0.00126099,-0.002138
 31,0.00045107,0.00016979,-0.00056040,0.00202179,-0.00047419,0.00206468
 ,-0.03820697,0.12844239,-0.03013571,0.00022998,0.00068865,-0.00405509,
 -0.00116925,0.00040611,0.00061322,0.03679598,0.12601477,-0.18279120,0.
 04681406,0.00035573,-0.00055955,0.00666311,0.00268213,0.00097475,-0.00
 059834,-0.12873751,0.18828586,-0.03414794,0.05326530,0.03069086,0.0005
 1831,-0.00054367,-0.00315231,-0.00041106,0.00007316,0.00045699,0.03362
 185,-0.05013922,-0.03074084,-0.00131537,0.00391875,0.00141684,0.002039
 76,-0.00123956,-0.00087528,0.00009102,0.00014690,0.00023028,0.00235026
 ,-0.00031512,0.00041884,-0.00316568,0.00543303,0.00647558,0.00487769,-
 0.00181503,-0.00146325,-0.00477012,-0.00030737,-0.00025495,-0.00035817
 ,-0.00079965,-0.00590987,-0.00265558,-0.00251098,0.00115248,0.00236943
 ,0.00541214,-0.00173374,-0.00108072,-0.00505957,-0.00138817,-0.0000537
 5,-0.00051914,0.00017705,-0.00004427,-0.00273962,0.00274530,-0.0011906
 9,0.00290619,0.00019955,-0.09659822,-0.34564216,-0.46414991,-0.1663320
 6,-0.20179089,-0.01882274,0.01688323,0.00629937,-0.02004835,-0.0021064
 0,0.01026569,0.01074900,-0.00903522,0.00111591,-0.00997042,0.00702865,
 0.01817793,0.00011650,0.01487386,-0.00107463,-0.00450714,-0.01197433,0
 .01648008,0.01688365,0.00223206,0.00017136,0.00122961,0.01913172,-0.01
 097739,0.00808795,0.00497481,0.00247872,0.00059337,0.00103433,0.008241
 80,-0.00311374,-0.00043835,-0.00473294,0.00352003,0.00070904,0.0015438
 9,0.00112286,-0.00426632,-0.00006819,-0.00615312,0.02063132,-0.0120978
 1,-0.00035163,-0.00087922,0.00134012,-0.00011802,0.00138854,0.00166769
 ,0.00067819,-0.01402140,0.02419714,0.00678044,0.01412856,-0.00242893,0
 .00306808,-0.00305504,0.00114533,0.00296053,0.00014342,0.00864851,0.00
 109968,-0.00202815,0.00115159,0.00038868,0.00405499,0.00017137,0.00405
 117,-0.00163478,-0.00034820,-0.00040897,-0.00182186,-0.01011464,-0.003
 70699,0.07105800,0.33496052,0.16984840,-0.01612966,-0.01289309,-0.0230
 1409,-0.01077790,-0.00141065,0.00331750,-0.00711925,-0.03156206,0.0014
 2979,-0.03703119,0.32215672,0.43853252,0.19172274,-0.00746507,-0.00444
 001,-0.01508259,-0.02603842,-0.00852777,0.00311400,0.00044148,-0.01390
 877,0.00913988,-0.28909471,-0.41165597,0.16176991,0.18719432,0.0147975
 3,0.00041046,0.00839459,-0.00078338,-0.01221210,-0.00559258,0.00191926
 ,0.00161333,-0.00110230,-0.00032391,-0.15158160,-0.18889403,-0.0156095
 0,-0.11592463,-0.30808864,-0.41734409,-0.10713177,-0.23671835,0.019335
 98,0.01245874,0.00414831,-0.00519676,-0.01634243,-0.00058264,0.0248109
 2,-0.03506650,0.00158924,-0.00472501,0.01623348,0.01414898,-0.02622753
 ,-0.00394969,0.02513654,0.02923251,0.00277827,0.01130058,0.00634309,0.
 00218597,0.00009297,-0.00054231,-0.00857048,-0.00218275,0.00389460,0.0
 0289606,0.00165714,0.00069749,-0.00023862,-0.00187005,-0.00091089,-0.0
 0216511,-0.00187140,0.00010720,-0.00045511,0.00185511,0.00190799,0.002
 18541,-0.00052596,-0.00012662,0.00464113,0.00073781,0.00295904,-0.0009
 1288,0.00097562,0.00102920,0.00258400,0.00082706,0.00066140,-0.0085337
 0,0.03985184,-0.01634796,0.02525022,-0.00039397,0.00278488,-0.00122084
 ,-0.00070091,0.00230073,-0.00032669,-0.01677779,0.03597765,0.00321812,
 -0.01181233,0.02280224,0.00104552,0.00263286,0.00157768,-0.00120922,0.
 00067291,-0.00010176,-0.00146303,0.00817099,-0.01932072,0.09604649,0.2
 9190194,0.10302641,0.00261061,-0.00207520,-0.01277067,0.00102220,0.001
 56878,-0.00022644,0.00222143,-0.02197917,-0.00159139,-0.10190072,0.271
 00218,0.40498653,0.24363856,-0.00700072,-0.02356826,-0.03782607,-0.008
 82242,-0.00598158,0.00086906,0.01423730,-0.02471533,0.00033556,-0.2694
 1635,-0.35072136,0.08984528,0.23625310,-0.01601789,0.00855605,0.005441
 99,-0.00649063,-0.00677681,-0.00280429,-0.00178672,-0.00318661,-0.0318
 7369,-0.00495745,-0.08843792,-0.20701712,0.02925269,0.26578709,1.60593
 355,1.94410302,0.68307976,1.07883277,-0.22783892,-0.00615994,0.0035647
 3,0.01492059,0.00345689,0.00333284,-0.00336747,0.02280952,-0.00277961,
 -0.00011435,-0.00792159,-0.01583516,0.02601176,-0.00577840,-0.00976180
 ,-0.01233096,0.01494036,-0.00894660,-0.01248741,-0.00137735,-0.0027209
 4,-0.00243802,-0.01714713,0.01204332,-0.00125039,-0.00223291,-0.000874
 25,-0.00041544,-0.00164392,-0.00870594,0.00031546,0.00074421,0.0051857
 3,-0.00145700,-0.00030593,-0.00028711,-0.00045050,0.00174454,0.0011690
 4,0.00346933,-0.00093282,0.01015198,0.00575896,0.00075039,-0.00035228,
 -0.00196013,-0.00065677,-0.00039267,0.00035040,0.00550655,-0.02679574,
 0.02199483,-0.01973620,-0.00097045,-0.00294753,-0.00022413,-0.00336124
 ,-0.00245168,0.00041185,0.00083751,-0.01951918,0.00516179,0.00576658,-
 0.00452605,-0.00065035,-0.00080309,-0.00162817,-0.00056207,0.00006561,
 0.00085739,0.00020120,0.00015575,0.00498134,-0.27363468,-1.61070365,-0
 .69127190,0.00333000,0.00251999,0.01809814,0.00424083,-0.00207032,-0.0
 0253311,-0.00466735,0.03028991,-0.00415058,0.27073119,-1.59451397,-1.9
 6147998,-1.07967318,0.00105958,0.00684480,0.02746501,0.02373486,0.0038
 0230,-0.00647941,-0.01024454,0.00292356,-0.00518485,1.57996408,1.94790
 932,-0.68106418,-1.07394991,0.20781022,-0.00818591,-0.01195752,-0.0116
 0211,0.01374307,0.00264227,-0.00241917,-0.00435044,0.01939273,0.000315
 48,0.67985745,1.06387244,-0.19410441\\@
 The archive entry for this job was punched.


 THOUGH I SPEAK WITH THE TONGUES OF MEN AND OF ANGELS, 
 AND HAVE NOT LOVE,
 I AM BECOME AS SOUNDING BRASS, A TINKLING CYMBAL.
 AND THOUGH I HAVE THE GIFT OF PROPHECY,
 AND UNDERSTAND ALL MYSTERIES, AND ALL KNOWLEDGE.
 AND THOUGH I HAVE ALL FAITH, SO THAT I COULD REMOVE MOUNTAINS,
 AND HAVE NOT LOVE, I AM NOTHING.
 AND THOUGH I BESTOW ALL MY GOODS TO FEED THE POOR,
 AND THOUGH I GIVE MY BODY TO BE BURNED,
 AND HAVE NOT LOVE IT PROFITETH ME NOTHING.
 LOVE SUFFERETH LONG, AND IS KIND,
 LOVE ENVIETH NOT,
 LOVE VAUNTETH NOT ITSELF, IS NOT PUFFED UP,
 DOTH NOT BEHAVE ITSELF UNSEEMLY, SEEKETH NOT HER OWN,
 IS NOT EASILY PROVOKED, THINKETH NO EVIL,
 REJOICETH NOT IN INIQUITY, BUT REJOICETH IN THE TRUTH,
 BEARETH ALL THINGS, BELIEVETH ALL THINGS,
 HOPETH ALL THINGS, ENDURETH ALL THINGS.
 LOVE NEVER FAILETH, BUT WHETHER THERE BE PROPHECIES, THEY SHALL FAIL, 
 WHETHER THERE BE TONGUES, THEY SHALL CEASE,
 WHETHER THERE BE KNOWLEDGE, IT SHALL VANISH AWAY.
 FOR WE KNOW IN PART, AND WE PROPHESY IN PART.
 BUT WHEN THAT WHICH IS PERFECT IS COME, THEN THAT WHICH IS IN PART 
 SHALL BE DONE AWAY. 
 WHEN I WAS A CHILD, I SPAKE AS A CHILD, I UNDERSTOOD AS A CHILD, 
 I THOUGHT AS A CHILD.
 BUT WHEN I BECAME A MAN, I PUT AWAY CHILDISH THINGS.
 FOR NOW WE SEE THROUGH A GLASS, DARKLY, BUT THEN FACE TO FACE.
 NOW I KNOW IN PART. BUT THEN SHALL I KNOW EVEN AS ALSO I AM KNOWN.
 AND NOW ABIDETH FAITH, HOPE AND LOVE, THESE THREE.
 BUT THE GREATEST OF THESE IS LOVE.

                     I CORINTHIANS 13
 Job cpu time:       0 days  0 hours 52 minutes 15.8 seconds.
 Elapsed time:       0 days  0 hours 25 minutes 52.7 seconds.
 File lengths (MBytes):  RWF=     50 Int=      0 D2E=      0 Chk=     41 Scr=      1
 Normal termination of Gaussian 16 at Mon Jul 27 15:04:40 2020.
