 Entering Gaussian System, Link 0=g16
 Input=CFC-113.gjf
 Output=CFC-113.log
 Initial command:
 /apps/gaussian/g16c01/g16/l1.exe "/jobfs/9051554.gadi-pbs/Gau-672671.inp" -scrdir="/jobfs/9051554.gadi-pbs/"
 Entering Link 1 = /apps/gaussian/g16c01/g16/l1.exe PID=    672672.
  
 Copyright (c) 1988-2019, Gaussian, Inc.  All Rights Reserved.
  
 This is part of the Gaussian(R) 16 program.  It is based on
 the Gaussian(R) 09 system (copyright 2009, Gaussian, Inc.),
 the Gaussian(R) 03 system (copyright 2003, Gaussian, Inc.),
 the Gaussian(R) 98 system (copyright 1998, Gaussian, Inc.),
 the Gaussian(R) 94 system (copyright 1995, Gaussian, Inc.),
 the Gaussian 92(TM) system (copyright 1992, Gaussian, Inc.),
 the Gaussian 90(TM) system (copyright 1990, Gaussian, Inc.),
 the Gaussian 88(TM) system (copyright 1988, Gaussian, Inc.),
 the Gaussian 86(TM) system (copyright 1986, Carnegie Mellon
 University), and the Gaussian 82(TM) system (copyright 1983,
 Carnegie Mellon University). Gaussian is a federally registered
 trademark of Gaussian, Inc.
  
 This software contains proprietary and confidential information,
 including trade secrets, belonging to Gaussian, Inc.
  
 This software is provided under written license and may be
 used, copied, transmitted, or stored only in accord with that
 written license.
  
 The following legend is applicable only to US Government
 contracts under FAR:
  
                    RESTRICTED RIGHTS LEGEND
  
 Use, reproduction and disclosure by the US Government is
 subject to restrictions as set forth in subparagraphs (a)
 and (c) of the Commercial Computer Software - Restricted
 Rights clause in FAR 52.227-19.
  
 Gaussian, Inc.
 340 Quinnipiac St., Bldg. 40, Wallingford CT 06492
  
  
 ---------------------------------------------------------------
 Warning -- This program may not be used in any manner that
 competes with the business of Gaussian, Inc. or will provide
 assistance to any competitor of Gaussian, Inc.  The licensee
 of this program is prohibited from giving any competitor of
 Gaussian, Inc. access to this program.  By using this program,
 the user acknowledges that Gaussian, Inc. is engaged in the
 business of creating and licensing software in the field of
 computational chemistry and represents and warrants to the
 licensee that it is not a competitor of Gaussian, Inc. and that
 it will not use this program in any manner prohibited above.
 ---------------------------------------------------------------
  

 Cite this work as:
 Gaussian 16, Revision C.01,
 M. J. Frisch, G. W. Trucks, H. B. Schlegel, G. E. Scuseria, 
 M. A. Robb, J. R. Cheeseman, G. Scalmani, V. Barone, 
 G. A. Petersson, H. Nakatsuji, X. Li, M. Caricato, A. V. Marenich, 
 J. Bloino, B. G. Janesko, R. Gomperts, B. Mennucci, H. P. Hratchian, 
 J. V. Ortiz, A. F. Izmaylov, J. L. Sonnenberg, D. Williams-Young, 
 F. Ding, F. Lipparini, F. Egidi, J. Goings, B. Peng, A. Petrone, 
 T. Henderson, D. Ranasinghe, V. G. Zakrzewski, J. Gao, N. Rega, 
 G. Zheng, W. Liang, M. Hada, M. Ehara, K. Toyota, R. Fukuda, 
 J. Hasegawa, M. Ishida, T. Nakajima, Y. Honda, O. Kitao, H. Nakai, 
 T. Vreven, K. Throssell, J. A. Montgomery, Jr., J. E. Peralta, 
 F. Ogliaro, M. J. Bearpark, J. J. Heyd, E. N. Brothers, K. N. Kudin, 
 V. N. Staroverov, T. A. Keith, R. Kobayashi, J. Normand, 
 K. Raghavachari, A. P. Rendell, J. C. Burant, S. S. Iyengar, 
 J. Tomasi, M. Cossi, J. M. Millam, M. Klene, C. Adamo, R. Cammi, 
 J. W. Ochterski, R. L. Martin, K. Morokuma, O. Farkas, 
 J. B. Foresman, and D. J. Fox, Gaussian, Inc., Wallingford CT, 2019.
 
 ******************************************
 Gaussian 16:  ES64L-G16RevC.01  3-Jul-2019
                27-Jul-2020 
 ******************************************
 %NprocShared=4
 Will use up to    4 processors via shared memory.
 %chk=checkpoint.chk
 ----------------------------------------------------------------------
 # wB97xD/Gen Freq=(anharmonic,ReadAnharm) Opt=(VeryTight,ZMatrix,CalcA
 ll) Int=UltraFine
 ----------------------------------------------------------------------
 1/7=1,10=4,18=40,26=4,38=1,80=1/1,3;
 2/12=2,17=6,18=5,29=3,40=1/2;
 3/5=7,11=2,25=1,30=1,71=2,74=-58,75=-5,140=1/1,2,3;
 4//1;
 5/5=2,38=5/2;
 8/6=4,10=90,11=11/1;
 11/6=1,8=1,9=11,15=111,16=1/1,2,10;
 10/6=1/2;
 6/7=2,8=2,9=2,10=2,18=1,28=1/1;
 7/10=1,25=1/1,2,3,16;
 1/7=1,10=4,18=40,26=4,80=1/3(3);
 2/29=3/2;
 7/8=1,9=1,25=1,44=-1,71=2,72=1/16;
 99//99;
 2/29=3/2;
 3/5=7,6=1,11=2,25=1,30=1,71=2,74=-58,75=-5,82=7,140=1/1,2,3;
 4/5=5,16=3,69=1/1;
 5/5=2,38=5/2;
 8/6=4,10=90,11=11/1;
 11/6=1,8=1,9=11,15=111,16=1/1,2,10;
 10/6=1/2;
 7/10=1,25=1/1,2,3,16;
 1/7=1,10=4,18=40,26=4,80=1/3(-8);
 2/29=3/2;
 6/7=2,8=2,9=2,10=2,18=1,19=2,28=1/1;
 7/8=1,9=1,25=1,44=-1,71=1,72=1/16;
 99//99;
 --------------------------------------------
 CFC-113 - Cl2FC-CClF2 ANHARMONIC FREQUENCIES
 --------------------------------------------
 Symbolic Z-matrix:
 Charge =  0 Multiplicity = 1
 C
 C                    1    r2
 Cl                   1    r3       2    a3
 F                    1    r4       2    a4       3    d4       0
 F                    1    r5       2    a5       3    d5       0
 Cl                   2    r6       1    a6       3    d6       0
 Cl                   2    r7       1    a7       3    d7       0
 F                    2    r8       1    a8       3    d8       0
       Variables:
  r2                    1.5462                   
  r3                    1.7881                   
  a3                  114.25                     
  r4                    1.3641                   
  a4                  110.37                     
  d4                  238.15                     
  r5                    1.3641                   
  a5                  110.37                     
  d5                  121.85                     
  r6                    1.796                    
  a6                  112.41                     
  d6                   61.45                     
  r7                    1.796                    
  a7                  112.41                     
  d7                  298.55                     
  r8                    1.3679                   
  a8                  109.28                     
  d8                  180.                       
 

 GradGradGradGradGradGradGradGradGradGradGradGradGradGradGradGradGradGrad
 Berny optimization.
 Initialization pass.
                       ----------------------------
                       !    Initial Parameters    !
                       ! (Angstroms and Degrees)  !
 ----------------------                            ----------------------
 !      Name          Value   Derivative information (Atomic Units)     !
 ------------------------------------------------------------------------
 !       r2          1.5462   calculate D2E/DX2 analytically            !
 !       r3          1.7881   calculate D2E/DX2 analytically            !
 !       a3        114.25     calculate D2E/DX2 analytically            !
 !       r4          1.3641   calculate D2E/DX2 analytically            !
 !       a4        110.37     calculate D2E/DX2 analytically            !
 !       d4        238.15     calculate D2E/DX2 analytically            !
 !       r5          1.3641   calculate D2E/DX2 analytically            !
 !       a5        110.37     calculate D2E/DX2 analytically            !
 !       d5        121.85     calculate D2E/DX2 analytically            !
 !       r6          1.796    calculate D2E/DX2 analytically            !
 !       a6        112.41     calculate D2E/DX2 analytically            !
 !       d6         61.45     calculate D2E/DX2 analytically            !
 !       r7          1.796    calculate D2E/DX2 analytically            !
 !       a7        112.41     calculate D2E/DX2 analytically            !
 !       d7        298.55     calculate D2E/DX2 analytically            !
 !       r8          1.3679   calculate D2E/DX2 analytically            !
 !       a8        109.28     calculate D2E/DX2 analytically            !
 !       d8        180.0      calculate D2E/DX2 analytically            !
 ------------------------------------------------------------------------
 Trust Radius=3.00D-01 FncErr=1.00D-07 GrdErr=1.00D-06 EigMax=2.50D+02 EigMin=1.00D-04
 Number of steps in this run=     28 maximum allowed number of steps=    100.
 GradGradGradGradGradGradGradGradGradGradGradGradGradGradGradGradGradGrad

 ---------------------------------------------------------------------------------------------------
                            Z-MATRIX (ANGSTROMS AND DEGREES)
   CD    Cent   Atom    N1       Length/X        N2       Alpha/Y        N3        Beta/Z          J
 ---------------------------------------------------------------------------------------------------
      1      1  C 
      2      2  C        1   1.546200(     1)
      3      3  Cl       1   1.788100(     2)      2  114.250(     8)
      4      4  F        1   1.364100(     3)      2  110.370(     9)      3  238.150(    14)      0
      5      5  F        1   1.364100(     4)      2  110.370(    10)      3  121.850(    15)      0
      6      6  Cl       2   1.796000(     5)      1  112.410(    11)      3   61.450(    16)      0
      7      7  Cl       2   1.796000(     6)      1  112.410(    12)      3  298.550(    17)      0
      8      8  F        2   1.367900(     7)      1  109.280(    13)      3  180.000(    18)      0
 ---------------------------------------------------------------------------------------------------
                         Z-Matrix orientation:                         
 ---------------------------------------------------------------------
 Center     Atomic      Atomic             Coordinates (Angstroms)
 Number     Number       Type             X           Y           Z
 ---------------------------------------------------------------------
      1          6           0        0.000000    0.000000    0.000000
      2          6           0        0.000000    0.000000    1.546200
      3         17           0        1.630322    0.000000   -0.734406
      4          9           0       -0.674817    1.086250   -0.474818
      5          9           0       -0.674817   -1.086250   -0.474818
      6         17           0        0.793531    1.458465    2.230892
      7         17           0        0.793531   -1.458465    2.230892
      8          9           0       -1.291183    0.000000    1.997860
 ---------------------------------------------------------------------
                    Distance matrix (angstroms):
                    1          2          3          4          5
     1  C    0.000000
     2  C    1.546200   0.000000
     3  Cl   1.788100   2.803411   0.000000
     4  F    1.364100   2.391616   2.561443   0.000000
     5  F    1.364100   2.391616   2.561443   2.172500   0.000000
     6  Cl   2.780952   1.796000   3.408861   3.100880   3.994057
     7  Cl   2.780952   1.796000   3.408861   3.994057   3.100880
     8  F    2.378781   1.367900   4.000059   2.770195   2.770195
                    6          7          8
     6  Cl   0.000000
     7  Cl   2.916931   0.000000
     8  F    2.554889   2.554889   0.000000
 Stoichiometry    C2Cl3F3
 Framework group  CS[SG(C2ClF),X(Cl2F2)]
 Deg. of freedom    11
 Full point group                 CS      NOp   2
 Largest Abelian subgroup         CS      NOp   2
 Largest concise Abelian subgroup CS      NOp   2
                         Standard orientation:                         
 ---------------------------------------------------------------------
 Center     Atomic      Atomic             Coordinates (Angstroms)
 Number     Number       Type             X           Y           Z
 ---------------------------------------------------------------------
      1          6           0        0.132947    0.965450   -0.000000
      2          6           0       -0.604552   -0.393531    0.000000
      3         17           0        1.916157    0.833310   -0.000000
      4          9           0       -0.233685    1.704646    1.086250
      5          9           0       -0.233685    1.704646   -1.086250
      6         17           0       -0.233685   -1.373813    1.458465
      7         17           0       -0.233685   -1.373813   -1.458465
      8          9           0       -1.954825   -0.174641    0.000000
 ---------------------------------------------------------------------
 Rotational constants (GHZ):           1.4122889           1.0276431           0.9697558
 General basis read from cards:  (5D, 7F)
 There are   129 symmetry adapted cartesian basis functions of A'  symmetry.
 There are    83 symmetry adapted cartesian basis functions of A"  symmetry.
 There are   117 symmetry adapted basis functions of A'  symmetry.
 There are    79 symmetry adapted basis functions of A"  symmetry.
   196 basis functions,   432 primitive gaussians,   212 cartesian basis functions
    45 alpha electrons       45 beta electrons
       nuclear repulsion energy       691.8139435788 Hartrees.
 NAtoms=    8 NActive=    8 NUniq=    6 SFac= 1.78D+00 NAtFMM=   60 NAOKFM=F Big=F
 Integral buffers will be    131072 words long.
 Raffenetti 2 integral format.
 Two-electron integral symmetry is turned on.
 Nuclear repulsion after empirical dispersion term =      691.8110514239 Hartrees.
 One-electron integrals computed using PRISM.
 NBasis=   196 RedAO= T EigKep=  1.71D-04  NBF=   117    79
 NBsUse=   196 1.00D-06 EigRej= -1.00D+00 NBFU=   117    79
 ExpMin= 3.35D-02 ExpMax= 6.35D+04 ExpMxC= 2.17D+03 IAcc=3 IRadAn=         5 AccDes= 0.00D+00
 Harris functional with IExCor= 4639 and IRadAn=       5 diagonalized for initial guess.
 HarFok:  IExCor= 4639 AccDes= 0.00D+00 IRadAn=         5 IDoV= 1 UseB2=F ITyADJ=14
 ICtDFT=  3500011 ScaDFX=  1.000000  1.000000  1.000000  1.000000
 FoFCou: FMM=F IPFlag=           0 FMFlag=      100000 FMFlg1=           0
         NFxFlg=           0 DoJE=T BraDBF=F KetDBF=T FulRan=T
         wScrn=  0.000000 ICntrl=       500 IOpCl=  0 I1Cent=   200000004 NGrid=           0
         NMat0=    1 NMatS0=      1 NMatT0=    0 NMatD0=    1 NMtDS0=    0 NMtDT0=    0
 Petite list used in FoFCou.
 Initial guess orbital symmetries:
       Occupied  (A') (A") (A') (A') (A") (A') (A') (A') (A') (A")
                 (A') (A') (A") (A') (A') (A") (A") (A') (A') (A")
                 (A') (A') (A") (A') (A') (A") (A') (A') (A') (A")
                 (A') (A") (A') (A') (A") (A") (A') (A") (A') (A')
                 (A") (A') (A') (A") (A")
       Virtual   (A') (A') (A') (A") (A') (A") (A') (A') (A") (A')
                 (A") (A') (A') (A") (A") (A') (A') (A") (A') (A')
                 (A') (A') (A") (A') (A") (A") (A') (A") (A') (A")
                 (A') (A") (A') (A') (A') (A') (A') (A") (A') (A")
                 (A') (A") (A') (A") (A') (A") (A') (A") (A") (A')
                 (A') (A') (A") (A') (A') (A') (A") (A') (A") (A')
                 (A') (A") (A") (A') (A') (A') (A') (A") (A") (A')
                 (A") (A') (A') (A") (A") (A") (A') (A') (A') (A')
                 (A") (A') (A") (A") (A') (A') (A") (A') (A") (A")
                 (A') (A") (A') (A') (A') (A") (A') (A") (A") (A')
                 (A") (A') (A") (A') (A") (A') (A") (A') (A') (A')
                 (A") (A') (A') (A") (A') (A') (A") (A") (A') (A')
                 (A') (A") (A') (A') (A") (A') (A") (A') (A") (A')
                 (A') (A") (A') (A") (A") (A") (A') (A') (A") (A')
                 (A") (A') (A') (A") (A') (A") (A') (A') (A') (A')
                 (A")
 The electronic state of the initial guess is 1-A'.
 Requested convergence on RMS density matrix=1.00D-08 within 128 cycles.
 Requested convergence on MAX density matrix=1.00D-06.
 Requested convergence on             energy=1.00D-06.
 No special actions if energy rises.
 SCF Done:  E(RwB97XD) =  -1756.15485833     A.U. after   14 cycles
            NFock= 14  Conv=0.46D-08     -V/T= 2.0014
 DoSCS=F DFT=T ScalE2(SS,OS)=  1.000000  1.000000
 Range of M.O.s used for correlation:     1   196
 NBasis=   196 NAE=    45 NBE=    45 NFC=     0 NFV=     0
 NROrb=    196 NOA=    45 NOB=    45 NVA=   151 NVB=   151

 **** Warning!!: The largest alpha MO coefficient is  0.17875937D+02

 Symmetrizing basis deriv contribution to polar:
 IMax=3 JMax=2 DiffMx= 0.00D+00
 G2DrvN: will do     9 centers at a time, making    1 passes.
 Calling FoFCou, ICntrl=  3107 FMM=F I1Cent=   0 AccDes= 0.00D+00.
 End of G2Drv F.D. properties file   721 does not exist.
 End of G2Drv F.D. properties file   722 does not exist.
 End of G2Drv F.D. properties file   788 does not exist.
          IDoAtm=11111111
          Differentiating once with respect to electric field.
                with respect to dipole field.
          Differentiating once with respect to nuclear coordinates.
 CalDSu exits because no D1Ps are significant.
          There are    21 degrees of freedom in the 1st order CPHF.  IDoFFX=4 NUNeed=    21.
     21 vectors produced by pass  0 Test12= 3.24D-14 4.76D-09 XBig12= 3.21D+01 1.86D+00.
 AX will form    21 AO Fock derivatives at one time.
     21 vectors produced by pass  1 Test12= 3.24D-14 4.76D-09 XBig12= 4.36D+00 4.20D-01.
     21 vectors produced by pass  2 Test12= 3.24D-14 4.76D-09 XBig12= 3.92D-01 1.04D-01.
     21 vectors produced by pass  3 Test12= 3.24D-14 4.76D-09 XBig12= 1.90D-02 1.93D-02.
     21 vectors produced by pass  4 Test12= 3.24D-14 4.76D-09 XBig12= 3.37D-04 2.93D-03.
     21 vectors produced by pass  5 Test12= 3.24D-14 4.76D-09 XBig12= 3.91D-06 3.52D-04.
     21 vectors produced by pass  6 Test12= 3.24D-14 4.76D-09 XBig12= 3.63D-08 2.35D-05.
     19 vectors produced by pass  7 Test12= 3.24D-14 4.76D-09 XBig12= 3.17D-10 2.27D-06.
      5 vectors produced by pass  8 Test12= 3.24D-14 4.76D-09 XBig12= 2.57D-12 1.63D-07.
      3 vectors produced by pass  9 Test12= 3.24D-14 4.76D-09 XBig12= 1.69D-14 1.98D-08.
 InvSVY:  IOpt=1 It=  1 EMax= 6.22D-15
 Solved reduced A of dimension   174 with    21 vectors.
 Isotropic polarizability for W=    0.000000       70.49 Bohr**3.
 End of Minotr F.D. properties file   721 does not exist.
 End of Minotr F.D. properties file   722 does not exist.
 End of Minotr F.D. properties file   788 does not exist.

 **********************************************************************

            Population analysis using the SCF Density.

 **********************************************************************

 Orbital symmetries:
       Occupied  (A") (A') (A') (A') (A') (A") (A') (A') (A") (A')
                 (A') (A") (A') (A') (A") (A') (A') (A") (A') (A")
                 (A') (A') (A") (A') (A') (A") (A') (A') (A') (A")
                 (A') (A") (A') (A') (A") (A") (A') (A") (A') (A')
                 (A") (A') (A') (A") (A")
       Virtual   (A') (A") (A') (A') (A') (A') (A") (A') (A") (A')
                 (A") (A') (A') (A') (A') (A") (A") (A") (A') (A")
                 (A') (A') (A') (A') (A') (A") (A") (A') (A") (A')
                 (A") (A') (A') (A") (A') (A') (A') (A') (A") (A")
                 (A') (A") (A') (A") (A') (A') (A") (A") (A') (A")
                 (A') (A') (A") (A') (A') (A") (A') (A') (A") (A')
                 (A") (A') (A') (A") (A') (A') (A') (A") (A") (A')
                 (A") (A') (A') (A") (A") (A") (A') (A') (A') (A')
                 (A") (A') (A") (A') (A") (A') (A") (A") (A') (A")
                 (A') (A") (A') (A') (A') (A") (A') (A") (A") (A')
                 (A") (A') (A') (A") (A") (A') (A") (A') (A') (A')
                 (A") (A') (A') (A") (A') (A') (A") (A") (A') (A')
                 (A') (A') (A") (A") (A') (A") (A') (A') (A") (A')
                 (A') (A") (A') (A") (A") (A") (A') (A') (A") (A')
                 (A") (A') (A') (A") (A') (A") (A') (A') (A') (A')
                 (A")
 The electronic state is 1-A'.
 Alpha  occ. eigenvalues -- -101.72548-101.72547-101.72441 -24.87619 -24.87456
 Alpha  occ. eigenvalues --  -24.87454 -10.57410 -10.54863  -9.62484  -9.62482
 Alpha  occ. eigenvalues --   -9.62410  -7.37278  -7.37277  -7.37185  -7.36123
 Alpha  occ. eigenvalues --   -7.36123  -7.36110  -7.36110  -7.36055  -7.36046
 Alpha  occ. eigenvalues --   -1.42888  -1.39382  -1.36248  -1.04956  -0.99672
 Alpha  occ. eigenvalues --   -0.96662  -0.87334  -0.77225  -0.71327  -0.70566
 Alpha  occ. eigenvalues --   -0.67647  -0.63684  -0.63556  -0.58796  -0.56980
 Alpha  occ. eigenvalues --   -0.54721  -0.54394  -0.51799  -0.50496  -0.46876
 Alpha  occ. eigenvalues --   -0.45255  -0.45066  -0.43569  -0.42844  -0.42059
 Alpha virt. eigenvalues --    0.01350   0.03356   0.03995   0.05371   0.07191
 Alpha virt. eigenvalues --    0.07954   0.08055   0.09683   0.09985   0.10062
 Alpha virt. eigenvalues --    0.11369   0.11804   0.13501   0.14733   0.14941
 Alpha virt. eigenvalues --    0.15155   0.15603   0.16542   0.16872   0.17523
 Alpha virt. eigenvalues --    0.18139   0.19042   0.20870   0.22657   0.24496
 Alpha virt. eigenvalues --    0.25282   0.26046   0.26606   0.26968   0.27230
 Alpha virt. eigenvalues --    0.27304   0.27800   0.28965   0.29336   0.30323
 Alpha virt. eigenvalues --    0.31453   0.33774   0.34161   0.34472   0.34706
 Alpha virt. eigenvalues --    0.35939   0.36594   0.36965   0.37688   0.38702
 Alpha virt. eigenvalues --    0.39889   0.40118   0.41130   0.42811   0.42924
 Alpha virt. eigenvalues --    0.43455   0.44566   0.45857   0.48102   0.51585
 Alpha virt. eigenvalues --    0.51917   0.51954   0.55389   0.55449   0.56880
 Alpha virt. eigenvalues --    0.57248   0.58824   0.60431   0.62075   0.70672
 Alpha virt. eigenvalues --    0.71229   0.74683   0.74888   0.75872   0.76677
 Alpha virt. eigenvalues --    0.77940   0.79981   0.80276   0.81012   0.84112
 Alpha virt. eigenvalues --    0.84552   0.84988   0.87220   0.89212   0.90587
 Alpha virt. eigenvalues --    0.90656   0.93071   0.93162   0.96216   0.96607
 Alpha virt. eigenvalues --    0.98058   0.99310   1.00176   1.00319   1.01618
 Alpha virt. eigenvalues --    1.02400   1.02408   1.03400   1.04341   1.05862
 Alpha virt. eigenvalues --    1.07652   1.07732   1.10258   1.12552   1.13224
 Alpha virt. eigenvalues --    1.15489   1.17201   1.19324   1.19769   1.21157
 Alpha virt. eigenvalues --    1.22518   1.32533   1.33700   1.34836   1.39428
 Alpha virt. eigenvalues --    1.50402   1.52006   1.55843   1.57941   1.65241
 Alpha virt. eigenvalues --    1.70418   1.74919   1.76718   1.83244   1.91575
 Alpha virt. eigenvalues --    1.93644   1.98928   2.00292   2.02292   2.02824
 Alpha virt. eigenvalues --    2.06330   2.07614   2.11957   2.17686   2.22161
 Alpha virt. eigenvalues --    2.29996   2.33442   2.55399   2.77602   2.82841
 Alpha virt. eigenvalues --    2.85092   2.85410   2.89993   2.90188   2.91956
 Alpha virt. eigenvalues --    2.95159   2.97380   2.98178   2.99713   3.06089
 Alpha virt. eigenvalues --    3.08451   3.11649   3.23080   3.56472   3.63754
 Alpha virt. eigenvalues --    3.66732
          Condensed to atoms (all electrons):
               1          2          3          4          5          6
     1  C    5.730205  -0.504118   0.261511  -0.385516  -0.385516  -0.292885
     2  C   -0.504118   6.388165  -0.281015  -0.096243  -0.096243   0.168382
     3  Cl   0.261511  -0.281015  17.683917  -0.148169  -0.148169   0.026592
     4  F   -0.385516  -0.096243  -0.148169  10.421293  -0.179047  -0.029201
     5  F   -0.385516  -0.096243  -0.148169  -0.179047  10.421293   0.029809
     6  Cl  -0.292885   0.168382   0.026592  -0.029201   0.029809  17.753883
     7  Cl  -0.292885   0.168382   0.026592   0.029809  -0.029201  -0.255206
     8  F   -0.039014  -0.561776   0.029724  -0.026963  -0.026963  -0.120223
               7          8
     1  C   -0.292885  -0.039014
     2  C    0.168382  -0.561776
     3  Cl   0.026592   0.029724
     4  F    0.029809  -0.026963
     5  F   -0.029201  -0.026963
     6  Cl  -0.255206  -0.120223
     7  Cl  17.753883  -0.120223
     8  F   -0.120223  10.402905
 Mulliken charges:
               1
     1  C    1.908218
     2  C    0.814465
     3  Cl  -0.450986
     4  F   -0.585964
     5  F   -0.585964
     6  Cl  -0.281151
     7  Cl  -0.281151
     8  F   -0.537468
 Sum of Mulliken charges =  -0.00000
 Mulliken charges with hydrogens summed into heavy atoms:
               1
     1  C    1.908218
     2  C    0.814465
     3  Cl  -0.450986
     4  F   -0.585964
     5  F   -0.585964
     6  Cl  -0.281151
     7  Cl  -0.281151
     8  F   -0.537468
 APT charges:
               1
     1  C    1.270721
     2  C    1.076801
     3  Cl  -0.247913
     4  F   -0.520685
     5  F   -0.520685
     6  Cl  -0.262183
     7  Cl  -0.262183
     8  F   -0.533873
 Sum of APT charges =  -0.00000
 APT charges with hydrogens summed into heavy atoms:
               1
     1  C    1.270721
     2  C    1.076801
     3  Cl  -0.247913
     4  F   -0.520685
     5  F   -0.520685
     6  Cl  -0.262183
     7  Cl  -0.262183
     8  F   -0.533873
 Electronic spatial extent (au):  <R**2>=           1322.9321
 Charge=              0.0000 electrons
 Dipole moment (field-independent basis, Debye):
    X=              0.6526    Y=             -0.6697    Z=              0.0000  Tot=              0.9351
 Quadrupole moment (field-independent basis, Debye-Ang):
   XX=            -63.8088   YY=            -64.4826   ZZ=            -63.2249
   XY=              0.1805   XZ=              0.0000   YZ=              0.0000
 Traceless Quadrupole moment (field-independent basis, Debye-Ang):
   XX=              0.0300   YY=             -0.6438   ZZ=              0.6138
   XY=              0.1805   XZ=              0.0000   YZ=              0.0000
 Octapole moment (field-independent basis, Debye-Ang**2):
  XXX=             -0.3403  YYY=              9.2624  ZZZ=              0.0000  XYY=             -2.9523
  XXY=              6.9116  XXZ=              0.0000  XZZ=             -3.0749  YZZ=             -3.5500
  YYZ=              0.0000  XYZ=             -0.0000
 Hexadecapole moment (field-independent basis, Debye-Ang**3):
 XXXX=           -442.5917 YYYY=           -604.3457 ZZZZ=           -426.9016 XXXY=            -78.5883
 XXXZ=             -0.0000 YYYX=            -84.9734 YYYZ=             -0.0000 ZZZX=              0.0000
 ZZZY=              0.0000 XXYY=           -181.0870 XXZZ=           -156.5836 YYZZ=           -159.8630
 XXYZ=             -0.0000 YYXZ=             -0.0000 ZZXY=            -29.8088
 N-N= 6.918110514239D+02 E-N=-5.558136736499D+03  KE= 1.753684974769D+03
 Symmetry A'   KE= 1.137456023796D+03
 Symmetry A"   KE= 6.162289509733D+02
  Exact polarizability:      69.497       1.761      68.028       0.000       0.000      73.942
 Approx polarizability:      81.470      -3.777      75.412       0.000      -0.000      86.169
 Calling FoFJK, ICntrl=    100127 FMM=F ISym2X=1 I1Cent= 0 IOpClX= 0 NMat=1 NMatS=1 NMatT=0.
 ***** Axes restored to original set *****
 -------------------------------------------------------------------
 Center     Atomic                   Forces (Hartrees/Bohr)
 Number     Number              X              Y              Z
 -------------------------------------------------------------------
      1        6          -0.013450165   -0.000000000   -0.035147250
      2        6          -0.006480954   -0.000000000    0.030299298
      3       17          -0.009101897    0.000000000    0.008580751
      4        9           0.011193280   -0.014799138    0.015269984
      5        9           0.011193280    0.014799138    0.015269984
      6       17          -0.004960407   -0.006613734   -0.009742649
      7       17          -0.004960407    0.006613734   -0.009742649
      8        9           0.016567270   -0.000000000   -0.014787468
 -------------------------------------------------------------------
 Cartesian Forces:  Max     0.035147250 RMS     0.013704302
 -----------------------------------------------------------------------------------------------
                       Internal Coordinate Forces (Hartree/Bohr or radian)
  Cent   Atom   N1       Length/X         N2         Alpha/Y        N3         Beta/Z          J
 -----------------------------------------------------------------------------------------------
      1  C 
      2  C        1  -0.003973(     1)
      3  Cl       1  -0.011823(     2)      2  -0.013804(     8)
      4  F        1  -0.022637(     3)      2  -0.020322(     9)      3   0.004104(    14)     0
      5  F        1  -0.022637(     4)      2  -0.020322(    10)      3  -0.004104(    15)     0
      6  Cl       2  -0.011277(     5)      1  -0.019985(    11)      3   0.003754(    16)     0
      7  Cl       2  -0.011277(     6)      1  -0.019985(    12)      3  -0.003754(    17)     0
      8  F        2  -0.020521(     7)      1  -0.021941(    13)      3   0.000000(    18)     0
 -----------------------------------------------------------------------------------------------
 Internal  Forces:  Max     0.022637223 RMS     0.015301456

 GradGradGradGradGradGradGradGradGradGradGradGradGradGradGradGradGradGrad
 Berny optimization.
 Search for a local minimum.
 Step number   1 out of a maximum of   28
 All quantities printed in internal units (Hartrees-Bohrs-Radians)
 Second derivative matrix not updated -- analytic derivatives used.
 The second derivative matrix:
                          r2        r3        a3        r4        a4
           r2           0.26739
           r3           0.01353   0.20457
           a3           0.04375  -0.00935   0.42177
           r4           0.01726   0.03833  -0.03723   0.33746
           a4           0.03437  -0.03809   0.13477  -0.01047   0.42563
           d4          -0.00071  -0.04746   0.08664   0.01261  -0.02037
           r5           0.01726   0.03833  -0.03723   0.05123  -0.03929
           a5           0.03437  -0.03809   0.13477  -0.03929   0.14241
           d5           0.00071   0.04746  -0.08664  -0.06634   0.10467
           r6           0.01201   0.00288   0.00516   0.00227   0.00143
           a6           0.03763   0.00542   0.02762   0.00012   0.01073
           d6           0.00249   0.00022   0.01897   0.00478  -0.00946
           r7           0.01201   0.00288   0.00516   0.00183   0.01133
           a7           0.03763   0.00542   0.02762   0.01307   0.02762
           d7          -0.00249  -0.00022  -0.01897   0.00060  -0.00100
           r8           0.01596   0.00192   0.01199   0.00335  -0.00469
           a8           0.02927   0.01183   0.02694  -0.00421  -0.00210
           d8          -0.00000   0.00000  -0.00000  -0.00717   0.00261
                          d4        r5        a5        d5        r6
           d4           0.42477
           r5           0.06634   0.33746
           a5          -0.10467  -0.01047   0.42563
           d5          -0.24522  -0.01261   0.02037   0.42477
           r6           0.00220   0.00183   0.01133   0.00014   0.19610
           a6          -0.00867   0.01307   0.02762   0.00124  -0.00822
           d6           0.00489  -0.00060   0.00100   0.00360  -0.00068
           r7          -0.00014   0.00227   0.00143  -0.00220   0.02994
           a7          -0.00124   0.00012   0.01073   0.00867  -0.03703
           d7           0.00360  -0.00478   0.00946   0.00489  -0.04732
           r8          -0.00857   0.00335  -0.00469   0.00857   0.03821
           a8           0.00377  -0.00421  -0.00210  -0.00377  -0.03285
           d8           0.00380   0.00717  -0.00261   0.00380   0.05027
                          a6        d6        r7        a7        d7
           a6           0.40949
           d6           0.00526   0.38104
           r7          -0.03703   0.04732   0.19610
           a7           0.13474  -0.09337  -0.00822   0.40949
           d7           0.09337  -0.16814   0.00068  -0.00526   0.38104
           r8          -0.03338  -0.05520   0.03821  -0.03338   0.05520
           a8           0.11837   0.09232  -0.03285   0.11837  -0.09232
           d8          -0.08564  -0.19272  -0.05027   0.08564  -0.19272
                          r8        a8        d8
           r8           0.33057
           a8          -0.00417   0.40247
           d8           0.00000  -0.00000   0.39689
 ITU=  0
     Eigenvalues ---    0.01551   0.10613   0.12534   0.13101   0.15806
     Eigenvalues ---    0.22535   0.24239   0.24506   0.25961   0.31048
     Eigenvalues ---    0.33349   0.35608   0.39612   0.63651   0.64321
     Eigenvalues ---    0.66639   0.73236   0.78956
 RFO step:  Lambda=-9.41375938D-03 EMin= 1.55070418D-02
 Linear search not attempted -- first point.
 Variable       Old X    -DE/DX   Delta X   Delta X   Delta X     New X
                                 (Linear)    (Quad)   (Total)
    r2        2.92189  -0.00397   0.00000   0.02717   0.02717   2.94906
    r3        3.37902  -0.01182   0.00000  -0.04132  -0.04132   3.33770
    a3        1.99404  -0.01380   0.00000  -0.01602  -0.01602   1.97801
    r4        2.57778  -0.02264   0.00000  -0.05999  -0.05999   2.51779
    a4        1.92632  -0.02032   0.00000  -0.03746  -0.03746   1.88886
    d4        4.15650   0.00410   0.00000   0.00469   0.00469   4.16119
    r5        2.57778  -0.02264   0.00000  -0.05999  -0.05999   2.51779
    a5        1.92632  -0.02032   0.00000  -0.03746  -0.03746   1.88886
    d5        2.12668  -0.00410   0.00000  -0.00469  -0.00469   2.12199
    r6        3.39395  -0.01128   0.00000  -0.05174  -0.05174   3.34221
    a6        1.96192  -0.01998   0.00000  -0.02696  -0.02696   1.93496
    d6        1.07250   0.00375   0.00000   0.01075   0.01075   1.08325
    r7        3.39395  -0.01128   0.00000  -0.05174  -0.05174   3.34221
    a7        1.96192  -0.01998   0.00000  -0.02696  -0.02696   1.93496
    d7        5.21068  -0.00375   0.00000  -0.01075  -0.01075   5.19993
    r8        2.58496  -0.02052   0.00000  -0.05127  -0.05127   2.53369
    a8        1.90730  -0.02194   0.00000  -0.05276  -0.05276   1.85454
    d8        3.14159   0.00000   0.00000  -0.00000  -0.00000   3.14159
         Item               Value     Threshold  Converged?
 Maximum Force            0.022637     0.000002     NO 
 RMS     Force            0.015301     0.000001     NO 
 Maximum Displacement     0.059987     0.000006     NO 
 RMS     Displacement     0.037418     0.000004     NO 
 Predicted change in Energy=-4.825502D-03
 GradGradGradGradGradGradGradGradGradGradGradGradGradGradGradGradGradGrad

 ---------------------------------------------------------------------------------------------------
                            Z-MATRIX (ANGSTROMS AND DEGREES)
   CD    Cent   Atom    N1       Length/X        N2       Alpha/Y        N3        Beta/Z          J
 ---------------------------------------------------------------------------------------------------
      1      1  C 
      2      2  C        1   1.560575(     1)
      3      3  Cl       1   1.766233(     2)      2  113.332(     8)
      4      4  F        1   1.332356(     3)      2  108.223(     9)      3  238.419(    14)      0
      5      5  F        1   1.332356(     4)      2  108.223(    10)      3  121.581(    15)      0
      6      6  Cl       2   1.768619(     5)      1  110.865(    11)      3   62.066(    16)      0
      7      7  Cl       2   1.768619(     6)      1  110.865(    12)      3  297.934(    17)      0
      8      8  F        2   1.340769(     7)      1  106.257(    13)      3  180.000(    18)      0
 ---------------------------------------------------------------------------------------------------
                         Z-Matrix orientation:                         
 ---------------------------------------------------------------------
 Center     Atomic      Atomic             Coordinates (Angstroms)
 Number     Number       Type             X           Y           Z
 ---------------------------------------------------------------------
      1          6           0        0.000000    0.000000    0.000000
      2          6           0        0.000000    0.000000    1.560575
      3         17           0        1.621801    0.000000   -0.699528
      4          9           0       -0.662767    1.078104   -0.416659
      5          9           0       -0.662767   -1.078104   -0.416659
      6         17           0        0.774186    1.460081    2.190506
      7         17           0        0.774186   -1.460081    2.190506
      8          9           0       -1.287158    0.000000    1.935926
 ---------------------------------------------------------------------
                    Distance matrix (angstroms):
                    1          2          3          4          5
     1  C    0.000000
     2  C    1.560575   0.000000
     3  Cl   1.766233   2.781781   0.000000
     4  F    1.332356   2.347557   2.541963   0.000000
     5  F    1.332356   2.347557   2.541963   2.156208   0.000000
     6  Cl   2.743997   1.768619   3.347027   3.001341   3.912100
     7  Cl   2.743997   1.768619   3.347027   3.912100   3.001341
     8  F    2.324776   1.340769   3.925259   2.662110   2.662110
                    6          7          8
     6  Cl   0.000000
     7  Cl   2.920163   0.000000
     8  F    2.538855   2.538855   0.000000
 Stoichiometry    C2Cl3F3
 Framework group  CS[SG(C2ClF),X(Cl2F2)]
 Deg. of freedom    11
 Full point group                 CS      NOp   2
 Largest Abelian subgroup         CS      NOp   2
 Largest concise Abelian subgroup CS      NOp   2
                         Standard orientation:                         
 ---------------------------------------------------------------------
 Center     Atomic      Atomic             Coordinates (Angstroms)
 Number     Number       Type             X           Y           Z
 ---------------------------------------------------------------------
      1          6           0        0.143489    0.959626   -0.000000
      2          6           0       -0.609794   -0.407108    0.000000
      3         17           0        1.901502    0.789429   -0.000000
      4          9           0       -0.235835    1.644446    1.078104
      5          9           0       -0.235835    1.644446   -1.078104
      6         17           0       -0.235835   -1.332490    1.460081
      7         17           0       -0.235835   -1.332490   -1.460081
      8          9           0       -1.918251   -0.114531    0.000000
 ---------------------------------------------------------------------
 Rotational constants (GHZ):           1.4278723           1.0774496           1.0074690
 Basis read from rwf:  (5D, 7F)
 There are   129 symmetry adapted cartesian basis functions of A'  symmetry.
 There are    83 symmetry adapted cartesian basis functions of A"  symmetry.
 There are   117 symmetry adapted basis functions of A'  symmetry.
 There are    79 symmetry adapted basis functions of A"  symmetry.
   196 basis functions,   432 primitive gaussians,   212 cartesian basis functions
    45 alpha electrons       45 beta electrons
       nuclear repulsion energy       702.6824668978 Hartrees.
 NAtoms=    8 NActive=    8 NUniq=    6 SFac= 1.78D+00 NAtFMM=   60 NAOKFM=F Big=F
 Integral buffers will be    131072 words long.
 Raffenetti 2 integral format.
 Two-electron integral symmetry is turned on.
 Nuclear repulsion after empirical dispersion term =      702.6797125128 Hartrees.
 One-electron integrals computed using PRISM.
 NBasis=   196 RedAO= T EigKep=  1.65D-04  NBF=   117    79
 NBsUse=   196 1.00D-06 EigRej= -1.00D+00 NBFU=   117    79
 Initial guess from the checkpoint file:  "checkpoint.chk"
 B after Tr=     0.000000   -0.000000    0.000000
         Rot=    0.999987    0.000000    0.000000    0.005098 Ang=   0.58 deg.
 Initial guess orbital symmetries:
       Occupied  (A") (A') (A') (A') (A') (A") (A') (A') (A") (A')
                 (A') (A") (A') (A') (A") (A') (A') (A") (A') (A")
                 (A') (A') (A") (A') (A') (A") (A') (A') (A') (A")
                 (A') (A") (A') (A') (A") (A") (A') (A") (A') (A')
                 (A") (A') (A') (A") (A")
       Virtual   (A') (A") (A') (A') (A') (A') (A") (A') (A") (A')
                 (A") (A') (A') (A') (A') (A") (A") (A") (A') (A")
                 (A') (A') (A') (A') (A') (A") (A") (A') (A") (A')
                 (A") (A') (A') (A") (A') (A') (A') (A') (A") (A")
                 (A') (A") (A') (A") (A') (A') (A") (A") (A') (A")
                 (A') (A') (A") (A') (A') (A") (A') (A') (A") (A')
                 (A") (A') (A') (A") (A') (A') (A') (A") (A") (A')
                 (A") (A') (A') (A") (A") (A") (A') (A') (A') (A')
                 (A") (A') (A") (A') (A") (A') (A") (A") (A') (A")
                 (A') (A") (A') (A') (A') (A") (A') (A") (A") (A')
                 (A") (A') (A') (A") (A") (A') (A") (A') (A') (A')
                 (A") (A') (A') (A") (A') (A') (A") (A") (A') (A')
                 (A') (A') (A") (A") (A') (A") (A') (A') (A") (A')
                 (A') (A") (A') (A") (A") (A") (A') (A') (A") (A')
                 (A") (A') (A') (A") (A') (A") (A') (A') (A') (A')
                 (A")
 ExpMin= 3.35D-02 ExpMax= 6.35D+04 ExpMxC= 2.17D+03 IAcc=3 IRadAn=         5 AccDes= 0.00D+00
 Harris functional with IExCor= 4639 and IRadAn=       5 diagonalized for initial guess.
 HarFok:  IExCor= 4639 AccDes= 0.00D+00 IRadAn=         5 IDoV= 1 UseB2=F ITyADJ=14
 ICtDFT=  3500011 ScaDFX=  1.000000  1.000000  1.000000  1.000000
 FoFCou: FMM=F IPFlag=           0 FMFlag=      100000 FMFlg1=           0
         NFxFlg=           0 DoJE=T BraDBF=F KetDBF=T FulRan=T
         wScrn=  0.000000 ICntrl=       500 IOpCl=  0 I1Cent=   200000004 NGrid=           0
         NMat0=    1 NMatS0=      1 NMatT0=    0 NMatD0=    1 NMtDS0=    0 NMtDT0=    0
 Petite list used in FoFCou.
 Requested convergence on RMS density matrix=1.00D-08 within 128 cycles.
 Requested convergence on MAX density matrix=1.00D-06.
 Requested convergence on             energy=1.00D-06.
 No special actions if energy rises.
 SCF Done:  E(RwB97XD) =  -1756.15944975     A.U. after   11 cycles
            NFock= 11  Conv=0.67D-08     -V/T= 2.0012
 DoSCS=F DFT=T ScalE2(SS,OS)=  1.000000  1.000000
 Range of M.O.s used for correlation:     1   196
 NBasis=   196 NAE=    45 NBE=    45 NFC=     0 NFV=     0
 NROrb=    196 NOA=    45 NOB=    45 NVA=   151 NVB=   151

 **** Warning!!: The largest alpha MO coefficient is  0.20985866D+02

 Symmetrizing basis deriv contribution to polar:
 IMax=3 JMax=2 DiffMx= 0.00D+00
 G2DrvN: will do     9 centers at a time, making    1 passes.
 Calling FoFCou, ICntrl=  3107 FMM=F I1Cent=   0 AccDes= 0.00D+00.
 End of G2Drv F.D. properties file   721 does not exist.
 End of G2Drv F.D. properties file   722 does not exist.
 End of G2Drv F.D. properties file   788 does not exist.
          IDoAtm=11111111
          Differentiating once with respect to electric field.
                with respect to dipole field.
          Differentiating once with respect to nuclear coordinates.
 CalDSu exits because no D1Ps are significant.
          There are    21 degrees of freedom in the 1st order CPHF.  IDoFFX=4 NUNeed=    21.
     21 vectors produced by pass  0 Test12= 3.24D-14 4.76D-09 XBig12= 3.11D+01 1.91D+00.
 AX will form    21 AO Fock derivatives at one time.
     21 vectors produced by pass  1 Test12= 3.24D-14 4.76D-09 XBig12= 4.17D+00 3.98D-01.
     21 vectors produced by pass  2 Test12= 3.24D-14 4.76D-09 XBig12= 3.32D-01 8.39D-02.
     21 vectors produced by pass  3 Test12= 3.24D-14 4.76D-09 XBig12= 2.66D-02 2.15D-02.
     21 vectors produced by pass  4 Test12= 3.24D-14 4.76D-09 XBig12= 3.51D-04 3.60D-03.
     21 vectors produced by pass  5 Test12= 3.24D-14 4.76D-09 XBig12= 3.80D-06 3.31D-04.
     21 vectors produced by pass  6 Test12= 3.24D-14 4.76D-09 XBig12= 4.13D-08 3.39D-05.
     17 vectors produced by pass  7 Test12= 3.24D-14 4.76D-09 XBig12= 3.43D-10 2.71D-06.
      3 vectors produced by pass  8 Test12= 3.24D-14 4.76D-09 XBig12= 2.42D-12 1.86D-07.
      3 vectors produced by pass  9 Test12= 3.24D-14 4.76D-09 XBig12= 1.54D-14 1.31D-08.
 InvSVY:  IOpt=1 It=  1 EMax= 4.44D-15
 Solved reduced A of dimension   170 with    21 vectors.
 Isotropic polarizability for W=    0.000000       69.00 Bohr**3.
 End of Minotr F.D. properties file   721 does not exist.
 End of Minotr F.D. properties file   722 does not exist.
 End of Minotr F.D. properties file   788 does not exist.
 Calling FoFJK, ICntrl=    100127 FMM=F ISym2X=1 I1Cent= 0 IOpClX= 0 NMat=1 NMatS=1 NMatT=0.
 ***** Axes restored to original set *****
 -------------------------------------------------------------------
 Center     Atomic                   Forces (Hartrees/Bohr)
 Number     Number              X              Y              Z
 -------------------------------------------------------------------
      1        6           0.001884298    0.000000000    0.000459288
      2        6           0.001298890    0.000000000    0.000352476
      3       17           0.000277627    0.000000000   -0.000196028
      4        9          -0.001071976    0.001732954   -0.000919517
      5        9          -0.001071976   -0.001732954   -0.000919517
      6       17           0.000224481    0.000437928    0.000237895
      7       17           0.000224481   -0.000437928    0.000237895
      8        9          -0.001765825   -0.000000000    0.000747508
 -------------------------------------------------------------------
 Cartesian Forces:  Max     0.001884298 RMS     0.000911920
 -----------------------------------------------------------------------------------------------
                       Internal Coordinate Forces (Hartree/Bohr or radian)
  Cent   Atom   N1       Length/X         N2         Alpha/Y        N3         Beta/Z          J
 -----------------------------------------------------------------------------------------------
      1  C 
      2  C        1   0.001576(     1)
      3  Cl       1   0.000333(     2)      2   0.000234(     8)
      4  F        1   0.002223(     3)      2   0.000595(     9)      3  -0.000014(    14)     0
      5  F        1   0.002223(     4)      2   0.000595(    10)      3   0.000014(    15)     0
      6  Cl       2   0.000545(     5)      1   0.000157(    11)      3   0.000021(    16)     0
      7  Cl       2   0.000545(     6)      1   0.000157(    12)      3  -0.000021(    17)     0
      8  F        2   0.001904(     7)      1   0.000566(    13)      3   0.000000(    18)     0
 -----------------------------------------------------------------------------------------------
 Internal  Forces:  Max     0.002223054 RMS     0.000995271

 GradGradGradGradGradGradGradGradGradGradGradGradGradGradGradGradGradGrad
 Berny optimization.
 Search for a local minimum.
 Step number   2 out of a maximum of   28
 All quantities printed in internal units (Hartrees-Bohrs-Radians)
 Second derivative matrix not updated -- analytic derivatives used.
 DE= -4.59D-03 DEPred=-4.83D-03 R= 9.51D-01
 TightC=F SS=  1.41D+00  RLast= 1.59D-01 DXNew= 5.0454D-01 4.7625D-01
 Trust test= 9.51D-01 RLast= 1.59D-01 DXMaxT set to 4.76D-01
 The second derivative matrix:
                          r2        r3        a3        r4        a4
           r2           0.26431
           r3           0.01508   0.23053
           a3           0.04792  -0.00182   0.43662
           r4           0.02070   0.04055  -0.03616   0.41801
           a4           0.04540  -0.03962   0.13343   0.00399   0.45733
           d4          -0.00067  -0.04971   0.08558   0.01121  -0.01814
           r5           0.02070   0.04055  -0.03616   0.05421  -0.03653
           a5           0.04540  -0.03962   0.13343  -0.03653   0.13607
           d5           0.00067   0.04971  -0.08558  -0.06808   0.10259
           r6           0.01421   0.00292   0.00506   0.00244   0.00226
           a6           0.04443   0.00563   0.03025  -0.00033   0.01613
           d6           0.00175   0.00003   0.02159   0.00563  -0.01293
           r7           0.01421   0.00292   0.00506   0.00257   0.01282
           a7           0.04443   0.00563   0.03025   0.01490   0.03039
           d7          -0.00175  -0.00003  -0.02159   0.00021  -0.00235
           r8           0.01915   0.00262   0.01384   0.00355  -0.00581
           a8           0.04045   0.01324   0.02972  -0.00502   0.00096
           d8           0.00000   0.00000   0.00000  -0.00846   0.00509
                          d4        r5        a5        d5        r6
           d4           0.44635
           r5           0.06808   0.41801
           a5          -0.10259   0.00399   0.45733
           d5          -0.25497  -0.01121   0.01814   0.44635
           r6           0.00219   0.00257   0.01282   0.00044   0.22469
           a6          -0.01266   0.01490   0.03039   0.00208   0.00408
           d6           0.00686  -0.00021   0.00235   0.00368  -0.00517
           r7          -0.00044   0.00244   0.00226  -0.00219   0.02958
           a7          -0.00208  -0.00033   0.01613   0.01266  -0.03584
           d7           0.00368  -0.00563   0.01293   0.00686  -0.04567
           r8          -0.01010   0.00355  -0.00581   0.01010   0.04036
           a8           0.00672  -0.00502   0.00096  -0.00672  -0.03243
           d8           0.00574   0.00846  -0.00509   0.00574   0.05257
                          a6        d6        r7        a7        d7
           a6           0.42596
           d6           0.00447   0.38868
           r7          -0.03584   0.04567   0.22469
           a7           0.12636  -0.08874   0.00408   0.42596
           d7           0.08874  -0.16255   0.00517  -0.00447   0.38868
           r8          -0.03031  -0.05755   0.04036  -0.03031   0.05755
           a8           0.11286   0.09367  -0.03243   0.11286  -0.09367
           d8          -0.08104  -0.20388  -0.05257   0.08104  -0.20388
                          r8        a8        d8
           r8           0.39990
           a8           0.01349   0.43475
           d8           0.00000   0.00000   0.42327
 ITU=  1  0
     Eigenvalues ---    0.01760   0.12315   0.14757   0.14831   0.18047
     Eigenvalues ---    0.22839   0.27490   0.28425   0.28761   0.35858
     Eigenvalues ---    0.39270   0.42864   0.47677   0.63928   0.64854
     Eigenvalues ---    0.69672   0.76090   0.81706
 RFO step:  Lambda=-1.90824328D-05 EMin= 1.75954119D-02
 Quintic linear search produced a step of -0.04500.
 Variable       Old X    -DE/DX   Delta X   Delta X   Delta X     New X
                                 (Linear)    (Quad)   (Total)
    r2        2.94906   0.00158  -0.00122   0.00605   0.00482   2.95388
    r3        3.33770   0.00033   0.00186  -0.00260  -0.00074   3.33696
    a3        1.97801   0.00023   0.00072  -0.00039   0.00033   1.97835
    r4        2.51779   0.00222   0.00270   0.00210   0.00480   2.52259
    a4        1.88886   0.00059   0.00169  -0.00098   0.00071   1.88956
    d4        4.16119  -0.00001  -0.00021  -0.00027  -0.00048   4.16071
    r5        2.51779   0.00222   0.00270   0.00210   0.00480   2.52259
    a5        1.88886   0.00059   0.00169  -0.00098   0.00071   1.88956
    d5        2.12199   0.00001   0.00021   0.00027   0.00048   2.12247
    r6        3.34221   0.00054   0.00233  -0.00127   0.00106   3.34326
    a6        1.93496   0.00016   0.00121  -0.00142  -0.00021   1.93475
    d6        1.08325   0.00002  -0.00048   0.00065   0.00016   1.08342
    r7        3.34221   0.00054   0.00233  -0.00127   0.00106   3.34326
    a7        1.93496   0.00016   0.00121  -0.00142  -0.00021   1.93475
    d7        5.19993  -0.00002   0.00048  -0.00065  -0.00016   5.19977
    r8        2.53369   0.00190   0.00231   0.00201   0.00431   2.53800
    a8        1.85454   0.00057   0.00237  -0.00137   0.00100   1.85554
    d8        3.14159   0.00000   0.00000   0.00000   0.00000   3.14159
         Item               Value     Threshold  Converged?
 Maximum Force            0.002223     0.000002     NO 
 RMS     Force            0.000995     0.000001     NO 
 Maximum Displacement     0.004824     0.000006     NO 
 RMS     Displacement     0.002278     0.000004     NO 
 Predicted change in Energy=-1.916985D-05
 GradGradGradGradGradGradGradGradGradGradGradGradGradGradGradGradGradGrad

 ---------------------------------------------------------------------------------------------------
                            Z-MATRIX (ANGSTROMS AND DEGREES)
   CD    Cent   Atom    N1       Length/X        N2       Alpha/Y        N3        Beta/Z          J
 ---------------------------------------------------------------------------------------------------
      1      1  C 
      2      2  C        1   1.563128(     1)
      3      3  Cl       1   1.765844(     2)      2  113.351(     8)
      4      4  F        1   1.334896(     3)      2  108.264(     9)      3  238.391(    14)      0
      5      5  F        1   1.334896(     4)      2  108.264(    10)      3  121.609(    15)      0
      6      6  Cl       2   1.769178(     5)      1  110.853(    11)      3   62.075(    16)      0
      7      7  Cl       2   1.769178(     6)      1  110.853(    12)      3  297.925(    17)      0
      8      8  F        2   1.343052(     7)      1  106.315(    13)      3  180.000(    18)      0
 ---------------------------------------------------------------------------------------------------
                         Z-Matrix orientation:                         
 ---------------------------------------------------------------------
 Center     Atomic      Atomic             Coordinates (Angstroms)
 Number     Number       Type             X           Y           Z
 ---------------------------------------------------------------------
      1          6           0        0.000000    0.000000    0.000000
      2          6           0        0.000000    0.000000    1.563128
      3         17           0        1.621212    0.000000   -0.699911
      4          9           0       -0.664394    1.079587   -0.418352
      5          9           0       -0.664394   -1.079587   -0.418352
      6         17           0        0.774255    1.460785    2.192912
      7         17           0        0.774255   -1.460785    2.192912
      8          9           0       -1.288973   -0.000000    1.940407
 ---------------------------------------------------------------------
                    Distance matrix (angstroms):
                    1          2          3          4          5
     1  C    0.000000
     2  C    1.563128   0.000000
     3  Cl   1.765844   2.783823   0.000000
     4  F    1.334896   2.352274   2.543380   0.000000
     5  F    1.334896   2.352274   2.543380   2.159174   0.000000
     6  Cl   2.746311   1.769178   3.349575   3.005615   3.916874
     7  Cl   2.746311   1.769178   3.349575   3.916874   3.005615
     8  F    2.329513   1.343052   3.929434   2.668211   2.668211
                    6          7          8
     6  Cl   0.000000
     7  Cl   2.921570   0.000000
     8  F    2.540583   2.540583   0.000000
 Stoichiometry    C2Cl3F3
 Framework group  CS[SG(C2ClF),X(Cl2F2)]
 Deg. of freedom    11
 Full point group                 CS      NOp   2
 Largest Abelian subgroup         CS      NOp   2
 Largest concise Abelian subgroup CS      NOp   2
                         Standard orientation:                         
 ---------------------------------------------------------------------
 Center     Atomic      Atomic             Coordinates (Angstroms)
 Number     Number       Type             X           Y           Z
 ---------------------------------------------------------------------
      1          6           0        0.144387    0.960342    0.000000
      2          6           0       -0.609901   -0.408752   -0.000000
      3         17           0        1.902098    0.791054    0.000000
      4          9           0       -0.235658    1.647367    1.079587
      5          9           0       -0.235658    1.647367   -1.079587
      6         17           0       -0.235658   -1.333977    1.460785
      7         17           0       -0.235658   -1.333977   -1.460785
      8          9           0       -1.920927   -0.117204    0.000000
 ---------------------------------------------------------------------
 Rotational constants (GHZ):           1.4259909           1.0750500           1.0052432
 Basis read from rwf:  (5D, 7F)
 There are   129 symmetry adapted cartesian basis functions of A'  symmetry.
 There are    83 symmetry adapted cartesian basis functions of A"  symmetry.
 There are   117 symmetry adapted basis functions of A'  symmetry.
 There are    79 symmetry adapted basis functions of A"  symmetry.
   196 basis functions,   432 primitive gaussians,   212 cartesian basis functions
    45 alpha electrons       45 beta electrons
       nuclear repulsion energy       701.9873035455 Hartrees.
 NAtoms=    8 NActive=    8 NUniq=    6 SFac= 1.78D+00 NAtFMM=   60 NAOKFM=F Big=F
 Integral buffers will be    131072 words long.
 Raffenetti 2 integral format.
 Two-electron integral symmetry is turned on.
 Nuclear repulsion after empirical dispersion term =      701.9845398917 Hartrees.
 One-electron integrals computed using PRISM.
 NBasis=   196 RedAO= T EigKep=  1.66D-04  NBF=   117    79
 NBsUse=   196 1.00D-06 EigRej= -1.00D+00 NBFU=   117    79
 Initial guess from the checkpoint file:  "checkpoint.chk"
 B after Tr=     0.000000   -0.000000   -0.000000
         Rot=    1.000000    0.000000    0.000000   -0.000202 Ang=  -0.02 deg.
 Initial guess orbital symmetries:
       Occupied  (A") (A') (A') (A') (A") (A') (A') (A') (A") (A')
                 (A') (A") (A') (A') (A") (A') (A') (A") (A') (A")
                 (A') (A') (A") (A') (A') (A") (A') (A') (A') (A")
                 (A') (A") (A') (A') (A") (A") (A') (A") (A') (A')
                 (A") (A') (A') (A") (A")
       Virtual   (A') (A') (A") (A') (A') (A') (A") (A') (A') (A")
                 (A") (A') (A') (A') (A') (A") (A") (A") (A') (A')
                 (A") (A') (A') (A') (A") (A') (A") (A') (A") (A')
                 (A") (A') (A') (A") (A') (A') (A') (A') (A") (A")
                 (A') (A") (A") (A') (A') (A") (A') (A") (A") (A')
                 (A') (A') (A") (A') (A') (A') (A") (A') (A") (A')
                 (A") (A') (A') (A") (A') (A') (A") (A') (A") (A')
                 (A") (A') (A') (A") (A") (A") (A') (A') (A') (A')
                 (A") (A') (A") (A') (A") (A') (A") (A") (A') (A")
                 (A') (A") (A') (A') (A') (A") (A') (A") (A') (A")
                 (A") (A') (A') (A") (A") (A') (A") (A') (A') (A')
                 (A") (A') (A') (A") (A') (A') (A") (A") (A') (A')
                 (A') (A") (A') (A') (A") (A') (A") (A') (A") (A')
                 (A') (A") (A') (A") (A") (A") (A') (A') (A") (A')
                 (A") (A') (A") (A') (A') (A') (A") (A') (A') (A")
                 (A')
 Requested convergence on RMS density matrix=1.00D-08 within 128 cycles.
 Requested convergence on MAX density matrix=1.00D-06.
 Requested convergence on             energy=1.00D-06.
 No special actions if energy rises.
 SCF Done:  E(RwB97XD) =  -1756.15946902     A.U. after    9 cycles
            NFock=  9  Conv=0.35D-08     -V/T= 2.0012
 DoSCS=F DFT=T ScalE2(SS,OS)=  1.000000  1.000000
 Range of M.O.s used for correlation:     1   196
 NBasis=   196 NAE=    45 NBE=    45 NFC=     0 NFV=     0
 NROrb=    196 NOA=    45 NOB=    45 NVA=   151 NVB=   151

 **** Warning!!: The largest alpha MO coefficient is  0.20734334D+02

 Symmetrizing basis deriv contribution to polar:
 IMax=3 JMax=2 DiffMx= 0.00D+00
 G2DrvN: will do     9 centers at a time, making    1 passes.
 Calling FoFCou, ICntrl=  3107 FMM=F I1Cent=   0 AccDes= 0.00D+00.
 End of G2Drv F.D. properties file   721 does not exist.
 End of G2Drv F.D. properties file   722 does not exist.
 End of G2Drv F.D. properties file   788 does not exist.
          IDoAtm=11111111
          Differentiating once with respect to electric field.
                with respect to dipole field.
          Differentiating once with respect to nuclear coordinates.
 CalDSu exits because no D1Ps are significant.
          There are    21 degrees of freedom in the 1st order CPHF.  IDoFFX=4 NUNeed=    21.
     21 vectors produced by pass  0 Test12= 3.24D-14 4.76D-09 XBig12= 3.12D+01 1.91D+00.
 AX will form    21 AO Fock derivatives at one time.
     21 vectors produced by pass  1 Test12= 3.24D-14 4.76D-09 XBig12= 4.18D+00 3.98D-01.
     21 vectors produced by pass  2 Test12= 3.24D-14 4.76D-09 XBig12= 3.35D-01 8.48D-02.
     21 vectors produced by pass  3 Test12= 3.24D-14 4.76D-09 XBig12= 2.68D-02 2.10D-02.
     21 vectors produced by pass  4 Test12= 3.24D-14 4.76D-09 XBig12= 3.55D-04 3.61D-03.
     21 vectors produced by pass  5 Test12= 3.24D-14 4.76D-09 XBig12= 3.78D-06 3.30D-04.
     21 vectors produced by pass  6 Test12= 3.24D-14 4.76D-09 XBig12= 3.99D-08 3.30D-05.
     18 vectors produced by pass  7 Test12= 3.24D-14 4.76D-09 XBig12= 3.29D-10 2.73D-06.
      4 vectors produced by pass  8 Test12= 3.24D-14 4.76D-09 XBig12= 2.32D-12 1.88D-07.
      3 vectors produced by pass  9 Test12= 3.24D-14 4.76D-09 XBig12= 1.47D-14 1.27D-08.
 InvSVY:  IOpt=1 It=  1 EMax= 2.66D-15
 Solved reduced A of dimension   172 with    21 vectors.
 Isotropic polarizability for W=    0.000000       69.08 Bohr**3.
 End of Minotr F.D. properties file   721 does not exist.
 End of Minotr F.D. properties file   722 does not exist.
 End of Minotr F.D. properties file   788 does not exist.
 Calling FoFJK, ICntrl=    100127 FMM=F ISym2X=1 I1Cent= 0 IOpClX= 0 NMat=1 NMatS=1 NMatT=0.
 ***** Axes restored to original set *****
 -------------------------------------------------------------------
 Center     Atomic                   Forces (Hartrees/Bohr)
 Number     Number              X              Y              Z
 -------------------------------------------------------------------
      1        6          -0.000035805   -0.000000000    0.000080167
      2        6          -0.000068285   -0.000000000   -0.000107917
      3       17           0.000019267    0.000000000   -0.000009536
      4        9           0.000016764   -0.000028010    0.000009379
      5        9           0.000016764    0.000028010    0.000009379
      6       17           0.000010415    0.000014937    0.000009689
      7       17           0.000010415   -0.000014937    0.000009689
      8        9           0.000030465    0.000000000   -0.000000849
 -------------------------------------------------------------------
 Cartesian Forces:  Max     0.000107917 RMS     0.000034500
 -----------------------------------------------------------------------------------------------
                       Internal Coordinate Forces (Hartree/Bohr or radian)
  Cent   Atom   N1       Length/X         N2         Alpha/Y        N3         Beta/Z          J
 -----------------------------------------------------------------------------------------------
      1  C 
      2  C        1  -0.000089(     1)
      3  Cl       1   0.000021(     2)      2   0.000004(     8)
      4  F        1  -0.000034(     3)      2   0.000003(     9)      3  -0.000001(    14)     0
      5  F        1  -0.000034(     4)      2   0.000003(    10)      3   0.000001(    15)     0
      6  Cl       2   0.000020(     5)      1   0.000009(    11)      3  -0.000007(    16)     0
      7  Cl       2   0.000020(     6)      1   0.000009(    12)      3   0.000007(    17)     0
      8  F        2  -0.000029(     7)      1   0.000020(    13)      3  -0.000000(    18)     0
 -----------------------------------------------------------------------------------------------
 Internal  Forces:  Max     0.000089388 RMS     0.000027002

 GradGradGradGradGradGradGradGradGradGradGradGradGradGradGradGradGradGrad
 Berny optimization.
 Search for a local minimum.
 Step number   3 out of a maximum of   28
 All quantities printed in internal units (Hartrees-Bohrs-Radians)
 Second derivative matrix not updated -- analytic derivatives used.
 DE= -1.93D-05 DEPred=-1.92D-05 R= 1.01D+00
 TightC=F SS=  1.41D+00  RLast= 9.67D-03 DXNew= 8.0095D-01 2.8998D-02
 Trust test= 1.01D+00 RLast= 9.67D-03 DXMaxT set to 4.76D-01
 The second derivative matrix:
                          r2        r3        a3        r4        a4
           r2           0.26042
           r3           0.01500   0.23043
           a3           0.04768  -0.00191   0.43538
           r4           0.02035   0.04036  -0.03615   0.41086
           a4           0.04458  -0.03943   0.13322   0.00343   0.45410
           d4          -0.00066  -0.04946   0.08540   0.01094  -0.01767
           r5           0.02035   0.04036  -0.03615   0.05371  -0.03635
           a5           0.04458  -0.03943   0.13322  -0.03635   0.13539
           d5           0.00066   0.04946  -0.08540  -0.06754   0.10211
           r6           0.01413   0.00292   0.00506   0.00246   0.00218
           a6           0.04407   0.00563   0.03008  -0.00029   0.01571
           d6           0.00181   0.00002   0.02137   0.00560  -0.01262
           r7           0.01413   0.00292   0.00506   0.00256   0.01278
           a7           0.04407   0.00563   0.03008   0.01483   0.03032
           d7          -0.00181  -0.00002  -0.02137   0.00023  -0.00227
           r8           0.01889   0.00261   0.01377   0.00358  -0.00569
           a8           0.03972   0.01321   0.02967  -0.00494   0.00079
           d8          -0.00000   0.00000   0.00000  -0.00839   0.00492
                          d4        r5        a5        d5        r6
           d4           0.44409
           r5           0.06754   0.41086
           a5          -0.10211   0.00343   0.45410
           d5          -0.25357  -0.01094   0.01767   0.44409
           r6           0.00224   0.00256   0.01278   0.00042   0.22372
           a6          -0.01232   0.01483   0.03032   0.00202   0.00395
           d6           0.00670  -0.00023   0.00227   0.00364  -0.00502
           r7          -0.00042   0.00246   0.00218  -0.00224   0.02950
           a7          -0.00202  -0.00029   0.01571   0.01232  -0.03568
           d7           0.00364  -0.00560   0.01262   0.00670  -0.04554
           r8          -0.01001   0.00358  -0.00569   0.01001   0.04014
           a8           0.00651  -0.00494   0.00079  -0.00651  -0.03228
           d8           0.00561   0.00839  -0.00492   0.00561   0.05231
                          a6        d6        r7        a7        d7
           a6           0.42431
           d6           0.00468   0.38743
           r7          -0.03568   0.04554   0.22372
           a7           0.12607  -0.08850   0.00395   0.42431
           d7           0.08850  -0.16221   0.00502  -0.00468   0.38743
           r8          -0.03029  -0.05735   0.04014  -0.03029   0.05735
           a8           0.11260   0.09334  -0.03228   0.11260  -0.09334
           d8          -0.08095  -0.20324  -0.05231   0.08095  -0.20324
                          r8        a8        d8
           r8           0.39378
           a8           0.01290   0.43164
           d8           0.00000  -0.00000   0.42169
 ITU=  1  1  0
     Eigenvalues ---    0.01738   0.12216   0.14654   0.14762   0.17931
     Eigenvalues ---    0.22512   0.27376   0.28245   0.28584   0.35613
     Eigenvalues ---    0.38667   0.42279   0.46969   0.63701   0.64608
     Eigenvalues ---    0.69443   0.75756   0.81185
 RFO step:  Lambda=-3.67633217D-08 EMin= 1.73775824D-02
 Quintic linear search produced a step of -0.02089.
 Variable       Old X    -DE/DX   Delta X   Delta X   Delta X     New X
                                 (Linear)    (Quad)   (Total)
    r2        2.95388  -0.00009  -0.00010  -0.00028  -0.00038   2.95350
    r3        3.33696   0.00002   0.00002   0.00014   0.00016   3.33712
    a3        1.97835   0.00000  -0.00001   0.00001   0.00000   1.97835
    r4        2.52259  -0.00003  -0.00010   0.00003  -0.00007   2.52252
    a4        1.88956   0.00000  -0.00001   0.00005   0.00004   1.88960
    d4        4.16071  -0.00000   0.00001   0.00001   0.00002   4.16073
    r5        2.52259  -0.00003  -0.00010   0.00003  -0.00007   2.52252
    a5        1.88956   0.00000  -0.00001   0.00005   0.00004   1.88960
    d5        2.12247   0.00000  -0.00001  -0.00001  -0.00002   2.12245
    r6        3.34326   0.00002  -0.00002   0.00016   0.00014   3.34340
    a6        1.93475   0.00001   0.00000   0.00001   0.00002   1.93477
    d6        1.08342  -0.00001  -0.00000  -0.00004  -0.00005   1.08337
    r7        3.34326   0.00002  -0.00002   0.00016   0.00014   3.34340
    a7        1.93475   0.00001   0.00000   0.00001   0.00002   1.93477
    d7        5.19977   0.00001   0.00000   0.00004   0.00005   5.19981
    r8        2.53800  -0.00003  -0.00009  -0.00001  -0.00010   2.53791
    a8        1.85554   0.00002  -0.00002   0.00013   0.00011   1.85565
    d8        3.14159  -0.00000  -0.00000  -0.00000  -0.00000   3.14159
         Item               Value     Threshold  Converged?
 Maximum Force            0.000089     0.000002     NO 
 RMS     Force            0.000027     0.000001     NO 
 Maximum Displacement     0.000385     0.000006     NO 
 RMS     Displacement     0.000118     0.000004     NO 
 Predicted change in Energy=-2.708119D-08
 GradGradGradGradGradGradGradGradGradGradGradGradGradGradGradGradGradGrad

 ---------------------------------------------------------------------------------------------------
                            Z-MATRIX (ANGSTROMS AND DEGREES)
   CD    Cent   Atom    N1       Length/X        N2       Alpha/Y        N3        Beta/Z          J
 ---------------------------------------------------------------------------------------------------
      1      1  C 
      2      2  C        1   1.562924(     1)
      3      3  Cl       1   1.765926(     2)      2  113.351(     8)
      4      4  F        1   1.334859(     3)      2  108.266(     9)      3  238.392(    14)      0
      5      5  F        1   1.334859(     4)      2  108.266(    10)      3  121.608(    15)      0
      6      6  Cl       2   1.769251(     5)      1  110.854(    11)      3   62.073(    16)      0
      7      7  Cl       2   1.769251(     6)      1  110.854(    12)      3  297.927(    17)      0
      8      8  F        2   1.343002(     7)      1  106.321(    13)      3  180.000(    18)      0
 ---------------------------------------------------------------------------------------------------
                         Z-Matrix orientation:                         
 ---------------------------------------------------------------------
 Center     Atomic      Atomic             Coordinates (Angstroms)
 Number     Number       Type             X           Y           Z
 ---------------------------------------------------------------------
      1          6           0        0.000000    0.000000    0.000000
      2          6           0        0.000000    0.000000    1.562924
      3         17           0        1.621287    0.000000   -0.699947
      4          9           0       -0.664344    1.079558   -0.418389
      5          9           0       -0.664344   -1.079558   -0.418389
      6         17           0        0.774348    1.460800    2.192764
      7         17           0        0.774348   -1.460800    2.192764
      8          9           0       -1.288883   -0.000000    1.940327
 ---------------------------------------------------------------------
                    Distance matrix (angstroms):
                    1          2          3          4          5
     1  C    0.000000
     2  C    1.562924   0.000000
     3  Cl   1.765926   2.783731   0.000000
     4  F    1.334859   2.352106   2.543389   0.000000
     5  F    1.334859   2.352106   2.543389   2.159115   0.000000
     6  Cl   2.746227   1.769251   3.349480   3.005545   3.916806
     7  Cl   2.746227   1.769251   3.349480   3.916806   3.005545
     8  F    2.329397   1.343002   3.929394   2.668153   2.668153
                    6          7          8
     6  Cl   0.000000
     7  Cl   2.921599   0.000000
     8  F    2.540587   2.540587   0.000000
 Stoichiometry    C2Cl3F3
 Framework group  CS[SG(C2ClF),X(Cl2F2)]
 Deg. of freedom    11
 Full point group                 CS      NOp   2
 Largest Abelian subgroup         CS      NOp   2
 Largest concise Abelian subgroup CS      NOp   2
                         Standard orientation:                         
 ---------------------------------------------------------------------
 Center     Atomic      Atomic             Coordinates (Angstroms)
 Number     Number       Type             X           Y           Z
 ---------------------------------------------------------------------
      1          6           0        0.144313    0.960290    0.000000
      2          6           0       -0.609919   -0.408602   -0.000000
      3         17           0        1.902101    0.790944    0.000000
      4          9           0       -0.235650    1.647335    1.079558
      5          9           0       -0.235650    1.647335   -1.079558
      6         17           0       -0.235650   -1.333933    1.460800
      7         17           0       -0.235650   -1.333933   -1.460800
      8          9           0       -1.920918   -0.117166   -0.000000
 ---------------------------------------------------------------------
 Rotational constants (GHZ):           1.4259752           1.0751000           1.0052925
 Basis read from rwf:  (5D, 7F)
 There are   129 symmetry adapted cartesian basis functions of A'  symmetry.
 There are    83 symmetry adapted cartesian basis functions of A"  symmetry.
 There are   117 symmetry adapted basis functions of A'  symmetry.
 There are    79 symmetry adapted basis functions of A"  symmetry.
   196 basis functions,   432 primitive gaussians,   212 cartesian basis functions
    45 alpha electrons       45 beta electrons
       nuclear repulsion energy       701.9962884378 Hartrees.
 NAtoms=    8 NActive=    8 NUniq=    6 SFac= 1.78D+00 NAtFMM=   60 NAOKFM=F Big=F
 Integral buffers will be    131072 words long.
 Raffenetti 2 integral format.
 Two-electron integral symmetry is turned on.
 Nuclear repulsion after empirical dispersion term =      701.9935249864 Hartrees.
 One-electron integrals computed using PRISM.
 NBasis=   196 RedAO= T EigKep=  1.66D-04  NBF=   117    79
 NBsUse=   196 1.00D-06 EigRej= -1.00D+00 NBFU=   117    79
 Initial guess from the checkpoint file:  "checkpoint.chk"
 B after Tr=    -0.000000    0.000000    0.000000
         Rot=    1.000000   -0.000000   -0.000000    0.000010 Ang=   0.00 deg.
 Initial guess orbital symmetries:
       Occupied  (A") (A') (A') (A') (A") (A') (A') (A') (A") (A')
                 (A') (A") (A') (A') (A") (A') (A') (A") (A') (A")
                 (A') (A') (A") (A') (A') (A") (A') (A') (A') (A")
                 (A') (A") (A') (A') (A") (A") (A') (A") (A') (A')
                 (A") (A') (A') (A") (A")
       Virtual   (A') (A') (A") (A') (A') (A') (A") (A') (A') (A")
                 (A") (A') (A') (A') (A') (A") (A") (A") (A') (A')
                 (A") (A') (A') (A') (A") (A') (A") (A') (A") (A')
                 (A") (A') (A') (A") (A') (A') (A') (A') (A") (A")
                 (A') (A") (A") (A') (A') (A") (A') (A") (A") (A')
                 (A') (A') (A") (A') (A') (A') (A") (A') (A") (A')
                 (A") (A') (A') (A") (A') (A') (A") (A') (A") (A')
                 (A") (A') (A') (A") (A") (A") (A') (A') (A') (A')
                 (A") (A') (A") (A') (A") (A') (A") (A') (A") (A")
                 (A') (A") (A') (A') (A') (A") (A') (A") (A') (A")
                 (A") (A') (A') (A") (A") (A') (A") (A') (A') (A')
                 (A") (A') (A') (A") (A') (A') (A") (A") (A') (A')
                 (A') (A") (A') (A') (A") (A') (A") (A') (A") (A')
                 (A') (A") (A') (A") (A") (A") (A') (A') (A") (A')
                 (A") (A') (A') (A") (A') (A') (A") (A') (A') (A")
                 (A')
 Requested convergence on RMS density matrix=1.00D-08 within 128 cycles.
 Requested convergence on MAX density matrix=1.00D-06.
 Requested convergence on             energy=1.00D-06.
 No special actions if energy rises.
 SCF Done:  E(RwB97XD) =  -1756.15946905     A.U. after    6 cycles
            NFock=  6  Conv=0.60D-08     -V/T= 2.0012
 DoSCS=F DFT=T ScalE2(SS,OS)=  1.000000  1.000000
 Range of M.O.s used for correlation:     1   196
 NBasis=   196 NAE=    45 NBE=    45 NFC=     0 NFV=     0
 NROrb=    196 NOA=    45 NOB=    45 NVA=   151 NVB=   151

 **** Warning!!: The largest alpha MO coefficient is  0.20742001D+02

 Symmetrizing basis deriv contribution to polar:
 IMax=3 JMax=2 DiffMx= 0.00D+00
 G2DrvN: will do     9 centers at a time, making    1 passes.
 Calling FoFCou, ICntrl=  3107 FMM=F I1Cent=   0 AccDes= 0.00D+00.
 End of G2Drv F.D. properties file   721 does not exist.
 End of G2Drv F.D. properties file   722 does not exist.
 End of G2Drv F.D. properties file   788 does not exist.
          IDoAtm=11111111
          Differentiating once with respect to electric field.
                with respect to dipole field.
          Differentiating once with respect to nuclear coordinates.
 CalDSu exits because no D1Ps are significant.
          There are    21 degrees of freedom in the 1st order CPHF.  IDoFFX=4 NUNeed=    21.
     21 vectors produced by pass  0 Test12= 3.24D-14 4.76D-09 XBig12= 3.12D+01 1.91D+00.
 AX will form    21 AO Fock derivatives at one time.
     21 vectors produced by pass  1 Test12= 3.24D-14 4.76D-09 XBig12= 4.18D+00 3.98D-01.
     21 vectors produced by pass  2 Test12= 3.24D-14 4.76D-09 XBig12= 3.35D-01 8.48D-02.
     21 vectors produced by pass  3 Test12= 3.24D-14 4.76D-09 XBig12= 2.68D-02 2.10D-02.
     21 vectors produced by pass  4 Test12= 3.24D-14 4.76D-09 XBig12= 3.55D-04 3.61D-03.
     21 vectors produced by pass  5 Test12= 3.24D-14 4.76D-09 XBig12= 3.79D-06 3.30D-04.
     21 vectors produced by pass  6 Test12= 3.24D-14 4.76D-09 XBig12= 4.00D-08 3.30D-05.
     18 vectors produced by pass  7 Test12= 3.24D-14 4.76D-09 XBig12= 3.29D-10 2.73D-06.
      4 vectors produced by pass  8 Test12= 3.24D-14 4.76D-09 XBig12= 2.32D-12 1.88D-07.
      3 vectors produced by pass  9 Test12= 3.24D-14 4.76D-09 XBig12= 1.47D-14 1.27D-08.
 InvSVY:  IOpt=1 It=  1 EMax= 7.11D-15
 Solved reduced A of dimension   172 with    21 vectors.
 Isotropic polarizability for W=    0.000000       69.08 Bohr**3.
 End of Minotr F.D. properties file   721 does not exist.
 End of Minotr F.D. properties file   722 does not exist.
 End of Minotr F.D. properties file   788 does not exist.
 Calling FoFJK, ICntrl=    100127 FMM=F ISym2X=1 I1Cent= 0 IOpClX= 0 NMat=1 NMatS=1 NMatT=0.
 ***** Axes restored to original set *****
 -------------------------------------------------------------------
 Center     Atomic                   Forces (Hartrees/Bohr)
 Number     Number              X              Y              Z
 -------------------------------------------------------------------
      1        6           0.000011258   -0.000000000   -0.000000228
      2        6          -0.000011278   -0.000000000    0.000000095
      3       17          -0.000000059   -0.000000000    0.000000022
      4        9           0.000000029   -0.000000087    0.000000056
      5        9           0.000000029    0.000000087    0.000000056
      6       17           0.000000011    0.000000055   -0.000000000
      7       17           0.000000011   -0.000000055   -0.000000000
      8        9           0.000000000   -0.000000000   -0.000000001
 -------------------------------------------------------------------
 Cartesian Forces:  Max     0.000011278 RMS     0.000003253
 -----------------------------------------------------------------------------------------------
                       Internal Coordinate Forces (Hartree/Bohr or radian)
  Cent   Atom   N1       Length/X         N2         Alpha/Y        N3         Beta/Z          J
 -----------------------------------------------------------------------------------------------
      1  C 
      2  C        1   0.000000(     1)
[...]
 .00004200,0.00015291,-0.00032555,0.00005320,-0.00002594,-0.00002739,-0
 .00004988,-0.00022012,-0.00005728,0.00299918,0.00104036,-0.00100065,0.
 00128869,0.00910995,-0.02203651,0.00508291,-0.00033245,-0.00014882,0.0
 0049071,0.00018661,-0.00025494,0.00072923,0.00005237,0.00017482,0.0001
 1516,0.00021349,0.00118655,0.00001816,-0.00973962,0.02206327,-0.000240
 08,0.00051555,-0.00151988,-0.00383146,0.00698204,-0.00414647,0.0002116
 2,0.00025002,-0.00060006,-0.00017092,0.00021514,-0.00025581,-0.0000093
 6,0.00006233,-0.00003210,-0.00004907,-0.00002550,-0.00003440,0.0039779
 3,-0.00817049,0.00681154,-0.00150034,-0.00000175,0.00540397,0.01944370
 ,0.00001495,-0.01320045,-0.00050077,-0.00000603,0.00031952,-0.00008094
 ,-0.00003175,0.00023847,-0.00008168,0.00003396,0.00022806,0.00061852,0
 .00051742,0.00012472,0.00060915,-0.00052258,0.00011239,-0.01850256,0.0
 0000398,0.00055975,0.00001276,0.00002225,0.00085634,-0.00000168,-0.000
 00042,0.00002722,-0.00000494,-0.00010959,-0.00011067,0.00025085,0.0000
 9508,-0.00009605,-0.00025598,0.00018114,0.00000970,-0.00015691,-0.0001
 7793,0.00000363,0.00016119,-0.00000889,-0.00125691,-0.00272312,0.00000
 916,0.00035424,-0.00514094,0.00001063,0.00455777,0.00097052,-0.0000014
 2,-0.00033046,0.00025125,0.00016420,-0.00040178,0.00027127,-0.00017137
 ,-0.00038922,-0.00019535,-0.00045614,-0.00020922,-0.00021427,0.0004541
 4,-0.00021995,0.00678278,-0.00000659,-0.00336140,0.00054758,0.00000607
 ,0.00093883,-0.00169771,0.00000467,-0.02397097,0.00087453,0.00002105,0
 .00184268,0.00499145,-0.00000971,-0.00088926,-0.00001059,-0.00002975,0
 .15937168,0.00485255,0.00001989,0.02080195,0.06116585,-0.00000937,0.00
 960005,0.00011266,0.00000105,-0.00081552,0.00042405,0.00000170,-0.0009
 5825,-0.00062345,0.00001983,0.00024118,-0.00000331,-0.00000268,0.00130
 777,0.00000085,-0.00000029,-0.00107427,0.00038011,0.00000765,0.0004555
 2,-0.00210018,-0.00000019,0.00418796,0.00073881,0.00000418,-0.00273014
 ,-0.00014747,0.00082075,0.00046592,-0.00001124,0.00017559,-0.00154740,
 0.00013671,-0.00003319,-0.00019423,0.00019152,0.00038144,0.00035204,-0
 .00110784,0.00003683,0.00035993,0.00093572,-0.00007069,-0.00000503,0.0
 0015251,-0.00072366,-0.00112651,-0.00136715,0.00197587,0.00086560,0.00
 000048,-0.00138992,-0.00113033,0.00022215,-0.00007307,0.00004686,0.001
 50987,-0.00066165,0.00079472,-0.00013619,-0.00081277,0.00046205,-0.000
 02089,-0.00016771,-0.00155437,0.00013502,0.00001991,-0.00018907,-0.000
 15167,0.00024654,-0.00006707,0.00019039,-0.00038190,0.00033411,0.00112
 024,-0.00004820,0.00034929,-0.00094614,0.00006679,0.00000531,-0.000165
 32,-0.00024659,0.00015791,-0.00023176,0.00071813,-0.00112607,-0.001364
 41,-0.00197149,0.00087975,0.00002007,0.00139430,-0.00114590,0.00022088
 ,0.00007010,0.00005052,-0.00006063,0.00023499,0.00001867,0.00151178,0.
 00065538,0.00079352,-0.00007092,0.00015929,-0.00013621,-0.02832236,-0.
 05104848,-0.02461427,-0.00007124,0.00036576,0.00057691,0.00000372,0.00
 008785,-0.00011042,0.00002186,0.00001175,-0.00013136,0.02673576,-0.000
 24655,-0.00056285,-0.00078469,-0.05328520,-0.07892347,-0.04537981,0.00
 015801,-0.00024577,-0.00051476,-0.00010220,0.00032510,-0.00016946,-0.0
 0010819,-0.00001025,-0.00045257,0.05172897,0.08606312,0.00016660,0.000
 86315,0.00055333,-0.02420828,-0.04448091,-0.01763522,0.00027266,-0.000
 51227,-0.00104062,-0.00004771,0.00017283,-0.00018439,-0.00010184,-0.00
 008468,-0.00022822,0.02379321,0.04577127,0.01763627,-0.00007735,-0.000
 15968,-0.00010714,-0.02830827,0.05104467,-0.02461252,-0.00007073,-0.00
 037076,0.00056622,0.00001988,-0.00000525,-0.00013288,-0.00000025,-0.00
 008787,-0.00011368,0.00070064,0.00214023,0.00066975,0.02674297,0.00024
 774,-0.00054361,0.00077914,0.05328453,-0.07894314,0.04537716,-0.000159
 75,-0.00024893,0.00051162,0.00011933,-0.00000654,0.00044956,0.00009766
 ,0.00031475,0.00017217,-0.00214698,-0.00626540,-0.00158409,-0.05172215
 ,0.08607218,0.00017829,-0.00086144,0.00056607,-0.02421633,0.04447719,-
 0.01764658,0.00027641,0.00050854,-0.00104839,-0.00010990,0.00007768,-0
 .00022221,-0.00006108,-0.00016702,-0.00018233,0.00067791,0.00157665,0.
 00076424,0.02380693,-0.04575848,0.01764068,-0.00118309,-0.00000174,-0.
 00001403,0.05038486,0.00001489,-0.01273514,-0.00003806,-0.00000602,0.0
 0022469,-0.00001624,0.00004585,-0.00006758,-0.00001695,-0.00004364,-0.
 00007789,0.00100695,-0.00029399,-0.00053944,0.00099914,0.00028775,-0.0
 0055124,-0.05113155,0.00000406,0.00023394,0.00001270,0.00002214,-0.002
 65283,-0.00000177,-0.00000045,-0.00000444,-0.00000493,-0.00001357,-0.0
 0006587,0.00008469,-0.00000093,-0.00005131,-0.00008983,0.00083194,-0.0
 0038660,-0.00013312,-0.00082982,-0.00039180,0.00013718,-0.00000775,0.0
 0331190,-0.00122612,0.00000920,-0.00015404,-0.01252026,0.00001089,0.00
 295396,0.00005652,-0.00000153,0.00007979,0.00000606,0.00019249,-0.0001
 9142,0.00002581,-0.00019966,-0.00017941,-0.00004567,-0.00006397,0.0001
 4213,-0.00006430,0.00006143,0.00013120,0.01377008,-0.00000622,-0.00278
 224,0.00163527,0.00000647,0.02320163,-0.00209250,0.00000380,0.09511565
 ,0.01447654,0.00002235,-0.01061659,0.01114333,-0.00001148,0.00884150,-
 0.00001098,-0.00002544,0.00931708,-0.01282282,0.00002067,-0.08022194,-
 0.00999043,-0.00000734,0.09244259,-0.05816655,0.00000157,0.02242957,-0
 .00167558,0.00000255,0.00118526,0.06474384,0.00002057,0.00950565,-0.00
 000409,-0.00000471,0.00035716,-0.00000025,0.00000186,-0.01071810,0.020
 53638,0.00000892,0.01166861,0.00006764,0.00000148,0.00034426,-0.022882
 37,0.00000330,-0.01208985,0.02151285,-0.00275444,-0.00664719,0.0003032
 6,-0.00038187,0.00062330,-0.00270347,-0.00039943,0.00126520,-0.0179730
 5,-0.00758062,-0.02094227,0.02166478,0.00019466,-0.00003607,0.00033183
 ,0.00190401,0.00028715,-0.00072243,0.00443714,0.01965489,-0.00503283,0
 .02166062,-0.00934730,0.00049035,0.00098585,-0.00164289,-0.00045063,0.
 00003988,-0.00002492,0.00532342,-0.02158761,0.00941226,0.02152583,0.00
 276257,-0.00664752,0.00028823,0.00038729,0.00061338,-0.00271099,0.0003
 8510,0.00126819,-0.00126946,0.00117869,-0.00033173,-0.01796769,0.00758
 010,-0.02095700,-0.02165017,-0.00020627,-0.00004512,-0.00034245,-0.001
 91041,0.00029647,0.00070904,-0.00117663,0.00097346,-0.00091547,-0.0044
 4307,0.01965436,-0.00502640,-0.02165372,-0.00932840,0.00049901,-0.0009
 8410,-0.00166446,-0.00045366,-0.00004068,-0.00002582,-0.00032291,0.000
 92116,0.00062806,0.00532688,0.02157631,0.00941277,-0.00014972,0.000409
 45,0.00036778,-0.00122813,-0.00557187,-0.00193344,0.00019410,0.0000092
 7,-0.00016731,0.00002288,-0.00010586,0.00009959,0.00005806,0.00016632,
 0.00015499,0.00134145,0.00064878,-0.00037550,-0.00166810,-0.00516365,-
 0.01317853,-0.00292129,-0.00002771,0.00011528,0.00007160,0.00003555,-0
 .00004850,0.00015940,-0.00020039,0.00011248,0.00023589,0.00515435,0.01
 311408,0.00082974,-0.00007606,-0.00205589,-0.00225206,-0.00421453,-0.0
 0113310,-0.00003361,0.00015853,0.00007826,0.00003012,-0.00018458,0.000
 12718,-0.00009498,0.00018159,0.00050707,0.00147347,0.00434927,0.002820
 29,-0.00015457,-0.00041351,0.00039807,-0.00121752,0.00556908,-0.001933
 77,0.00019411,-0.00001544,-0.00017854,0.00005524,-0.00015835,0.0001525
 2,0.00002099,0.00010672,0.00009873,-0.00009009,-0.00013256,-0.00009745
 ,0.00134761,-0.00064588,-0.00034968,0.00166379,0.00515684,-0.01320422,
 0.00291561,0.00002436,0.00011537,-0.00007744,0.00021371,0.00011648,-0.
 00023921,-0.00003970,-0.00006343,-0.00015576,0.00012559,0.00068820,0.0
 0005986,-0.00514416,0.01312217,0.00084302,0.00007611,-0.00204145,-0.00
 226103,0.00421239,-0.00114512,-0.00002944,-0.00016207,0.00007036,-0.00
 010211,-0.00018956,0.00051527,0.00001617,0.00019127,0.00012872,-0.0000
 9013,-0.00007026,-0.00020943,0.00148509,-0.00433388,0.00282254,-0.0007
 5990,-0.00000044,0.00280843,-0.02207798,0.00001293,0.02425497,0.000129
 47,-0.00000467,0.00009407,0.00007698,0.00012923,-0.00026329,0.00007634
 ,-0.00012827,-0.00027189,-0.00014410,-0.00032330,0.00014982,-0.0001499
 2,0.00031737,0.00013956,0.02285421,0.00000306,0.00118005,0.00001131,0.
 00002494,0.00792817,-0.00000025,0.00000013,0.00001669,-0.00000374,0.00
 002242,-0.00001410,-0.00011921,-0.00003786,0.00000250,0.00011395,-0.00
 019715,-0.00043309,-0.00026189,0.00019759,-0.00043768,0.00026630,-0.00
 000751,-0.00824951,0.00268762,0.00000716,-0.00379206,0.02404713,0.0000
 0862,-0.00699345,0.00024856,-0.00000112,-0.00001945,-0.00014787,-0.000
 23687,0.00032988,-0.00012420,0.00023091,0.00034863,0.00010525,-0.00017
 385,-0.00012670,0.00008785,0.00017555,-0.00013827,-0.02690221,-0.00000
 778,0.01039143,-0.00299349,0.00000606,0.07366666,0.00937480,0.00000487
 ,-0.03208127,0.00292248,0.00002098,-0.00414274,0.26367678,-0.00000943,
 0.00025477,-0.00001043,-0.00003225,-0.04603471,-0.00816168,0.00001988,
 0.02686661,-0.07958764,-0.00001136,-0.05748310,-0.00505150,0.00000098,
 0.00345805,0.00041372,0.00000154,0.00021906,0.00694332,0.00001976,0.00
 266564,-0.00000336,-0.00000268,0.00128615,0.00000089,0.00000260,-0.003
 27385,0.00705327,0.00000755,-0.00250156,-0.00329461,-0.00000042,0.0054
 7621,-0.00545407,0.00000373,0.00017214,0.00392320,0.01582065,-0.005624
 72,-0.00161246,0.00070761,0.00094034,-0.00119655,-0.00006734,0.0001315
 0,-0.00234534,0.01360255,-0.03791652,0.01258664,0.00098020,-0.00048615
 ,-0.00046507,0.00116903,0.00003059,-0.00034324,-0.01584940,0.03644669,
 -0.00583406,0.01367711,0.00316441,0.00018410,0.00003199,-0.00001942,0.
 00026476,-0.00012643,0.00019255,0.00521960,-0.01290655,-0.00312666,0.0
 0393425,-0.01581275,-0.00562908,-0.00162209,-0.00069948,0.00093337,-0.
 00120370,0.00005126,0.00013762,0.00032664,0.00059393,0.00017627,-0.002
 34085,-0.01360310,-0.03793441,-0.01257433,-0.00099144,-0.00049663,0.00
 045468,-0.00117564,0.00003946,0.00033072,-0.00059390,0.00169923,-0.000
 47017,0.01584667,0.03644868,-0.00583181,-0.01367295,0.00317774,0.00020
 399,-0.00002744,-0.00003482,0.00026454,0.00012369,0.00019668,0.0001824
 6,0.00047354,0.00009261,0.00522078,0.01290012,-0.00312767,-0.00002620,
 -0.00059958,-0.00016033,0.00110869,0.00009459,0.00064382,0.00003116,0.
 00033238,0.00039585,0.00002841,0.00008643,0.00005538,0.00000852,-0.000
 12006,-0.00024652,0.00012170,0.00034289,-0.00030982,0.00042532,0.00182
 255,-0.00481108,-0.00099615,0.00042869,-0.00040393,-0.00119497,-0.0001
 8783,0.00028523,-0.00021058,-0.00007499,-0.00012030,-0.00024976,0.0015
 3670,0.00560468,0.00086908,0.00058326,0.00065047,0.00097412,-0.0015608
 4,-0.00055173,0.00055523,-0.00074295,-0.00151163,-0.00009161,0.0001821
 8,-0.00005825,-0.00026891,-0.00035321,-0.00031576,-0.00027972,0.001976
 99,0.00086628,-0.00003264,0.00059946,-0.00013118,0.00112148,-0.0000965
 9,0.00064457,0.00003158,-0.00033736,0.00038540,0.00000656,0.00012652,-
 0.00024809,0.00002461,-0.00008659,0.00005249,0.00016817,0.00017206,-0.
 00015465,0.00012995,-0.00034188,-0.00029045,-0.00043139,-0.00182075,-0
 .00483437,0.00099544,-0.00043030,-0.00040745,0.00119247,0.00008591,-0.
 00011637,0.00024695,0.00018325,0.00027489,0.00021317,-0.00017860,0.000
 53612,0.00024841,-0.00153195,0.00561670,0.00088082,-0.00058155,0.00066
 360,0.00096534,0.00155914,-0.00056370,0.00055921,0.00073936,-0.0015197
 8,-0.00027689,0.00034610,-0.00030957,-0.00010494,-0.00017637,-0.000056
 16,-0.00014631,-0.00025569,0.00012344,-0.00026578,-0.00196634,0.000870
 79,-0.00275633,-0.00000177,0.00285525,-0.26599648,0.00001523,0.0843646
 1,0.00003718,-0.00000609,0.00064824,0.00089471,-0.00071034,0.00016944,
 0.00089392,0.00071253,0.00015882,-0.00143594,-0.00404900,-0.00159862,-
 0.00144377,0.00404245,-0.00161045,0.26981181,0.00000413,-0.00003149,0.
 00001302,0.00002212,0.05510198,-0.00000177,-0.00000054,0.00003930,-0.0
 0000508,0.00008076,0.00004830,-0.00025807,-0.00009525,0.00006281,0.000
 25268,-0.00116176,-0.00078665,-0.00032165,0.00116383,-0.00079180,0.000
 32564,-0.00000767,-0.05364943,0.00157177,0.00000932,0.00005721,0.08468
 146,0.00001075,0.02629584,0.00014686,-0.00000142,-0.00050291,-0.000458
 69,0.00012313,0.00006185,-0.00043892,-0.00013041,0.00007396,-0.0002521
 1,0.00048750,0.00080477,-0.00027041,-0.00049019,0.00079393,-0.08497784
 ,-0.00000607,-0.02758466,0.13277159,0.00000689,0.20780871,0.14452146,0
 .00000690,0.00401023,-0.00067577,0.00002098,0.00494109,0.00118699,-0.0
 0000963,-0.00026934,-0.00001058,-0.00002971,0.00027166,0.00441023,0.00
 001977,0.01517427,-0.00241274,-0.00000938,-0.01771124,0.01729726,0.000
 00103,-0.00212270,-0.00078857,0.00000172,-0.00165408,-0.01432357,0.000
 01985,-0.00324956,-0.00000330,-0.00000260,0.00030633,0.00000088,0.0000
 0244,0.00051888,-0.00427736,0.00000761,-0.00281211,0.00008241,-0.00000
 026,0.00048000,0.00361019,0.00000340,-0.00010533,-0.07413573,0.1372058
 2,-0.07291515,0.00019748,-0.00000345,-0.00042749,-0.00109181,-0.000204
 78,0.00043277,0.07307595,0.14273642,-0.10107741,0.08855044,0.00076989,
 -0.00042586,0.00127469,0.00137357,0.00096314,-0.00064360,-0.14051706,0
 .10576929,-0.07251288,0.08677188,-0.00778896,-0.00108868,0.00021985,0.
 00055944,-0.00038561,-0.00047055,0.00099611,0.07290764,-0.08784794,0.0
 0585584,-0.07412467,-0.13719794,-0.07291929,0.00018802,0.00001151,-0.0
 0043428,-0.00109854,0.00018888,0.00043853,0.00153954,-0.00402612,0.000
 60154,0.07308019,-0.14273703,-0.10109546,-0.08853815,-0.00078118,-0.00
 043654,-0.00128501,-0.00137996,0.00097212,0.00063100,0.00402600,-0.006
 00923,0.00190126,0.14051413,0.10577131,-0.07251045,-0.08676763,-0.0077
 7513,-0.00106850,-0.00021530,0.00054428,-0.00038634,0.00046769,0.00099
 987,0.00060779,-0.00189815,0.00066272,0.07290948,0.08784157,0.00585552
 ,-0.00018531,0.00005059,0.00011566,0.00004988,-0.00034483,0.00016768,0
 .00010874,-0.00014983,-0.00028647,-0.00012887,0.00021920,0.00007069,0.
 00008066,0.00002304,-0.00004136,0.00001695,0.00005691,-0.00082519,-0.0
 0046996,-0.00015384,0.00026670,0.00045429,0.00020558,0.00022988,0.0001
 2923,-0.00032253,0.00055560,-0.00033454,0.00017392,0.00011858,-0.00004
 600,0.00001124,-0.00033682,0.00011148,-0.00014438,-0.00070684,-0.00048
 368,-0.00113065,0.00026071,0.00027160,0.00040331,0.00036893,-0.0001795
 0,0.00036936,-0.00015261,0.00003432,-0.00021590,-0.00020977,0.00012603
 ,0.00046558,0.00049792,-0.00019127,-0.00005159,0.00014568,0.00006408,0
 .00034049,0.00016952,0.00010904,0.00014469,-0.00029678,0.00007865,-0.0
 0001653,-0.00004302,-0.00013308,-0.00021918,0.00006707,-0.00007970,-0.
 00012286,-0.00002313,0.00002547,-0.00005658,-0.00080424,0.00046215,0.0
 0015325,0.00024776,-0.00045682,-0.00020755,0.00022622,-0.00013163,-0.0
 0016293,0.00012220,0.00004312,0.00031811,0.00054525,0.00033723,0.00011
 619,-0.00004566,0.00012050,-0.00000375,-0.00032961,0.00012423,0.000144
 00,-0.00069113,-0.00049153,0.00112692,0.00024938,0.00027570,-0.0004064
 5,0.00036006,0.00002621,0.00020894,-0.00020384,-0.00019343,-0.00036345
 ,-0.00015159,-0.00001485,-0.00012781,-0.00003612,0.00013847,-0.0004515
 0,0.00050153,-0.00083634,-0.00000175,-0.00176671,-0.00020997,0.0000151
 0,0.00017761,-0.00020756,-0.00000609,0.00029993,0.00048999,-0.00054045
 ,0.00043772,0.00048919,0.00054266,0.00042707,0.00014164,0.00014266,0.0
 0014802,0.00013291,-0.00014861,0.00013621,0.00000523,0.00000415,-0.000
 38313,0.00001284,0.00002194,0.00001925,-0.00000188,-0.00000047,0.00000
 878,-0.00000500,-0.00002463,0.00009330,-0.00029883,0.00001016,0.000107
 70,0.00029363,0.00006450,0.00003076,0.00014437,-0.00006187,0.00002544,
 -0.00014035,-0.00000817,0.00009093,0.00005547,0.00000935,0.00058687,0.
 00050567,0.00001078,0.00042904,0.00040490,-0.00000148,-0.00028605,-0.0
 0043030,-0.00001703,0.00006880,-0.00041066,0.00000974,0.00008070,-0.00
 012712,-0.00008813,-0.00001489,-0.00014543,0.00008547,-0.00002557,0.00
 014958,-0.00000609,-0.00083891,-0.02284293,0.00000621,0.12219357,0.005
 25347,0.00000518,0.13432827,0.02917864,0.00002122,0.00740484,0.0295606
 9,-0.00000985,0.02803287,-0.00001045,-0.00003028,-0.04238545,0.0085502
 0,0.00001993,-0.19325664,-0.00755466,-0.00000977,0.17052677,0.01017944
 ,0.00000107,-0.01283376,0.00139382,0.00000171,-0.00000027,-0.01153501,
 0.00001991,-0.00012493,-0.00000328,-0.00000272,0.00144636,0.00000074,0
 .00000083,-0.00095003,-0.00821683,0.00000773,0.00773252,-0.00256842,-0
 .00000027,0.00370208,0.00951693,0.00000360,-0.00882749,-0.00773295,0.0
 4291267,0.00013810,-0.00096515,0.00003155,-0.00051852,0.00015625,-0.00
 013726,0.00010739,0.00690163,0.04107595,-0.07403154,0.00343293,0.00114
 561,-0.00051491,0.00104304,-0.00001037,-0.00002913,0.00001502,-0.04182
 272,0.07044853,-0.00338891,0.00767230,0.02721469,-0.00009227,-0.000951
 55,-0.00334312,0.00134275,0.00006954,-0.00064990,0.00143444,-0.0058624
 4,-0.02215450,-0.00772163,-0.04290472,0.00013405,-0.00097480,-0.000023
 63,-0.00052552,0.00015236,0.00012290,0.00011301,0.00052107,0.00100445,
 0.00007276,0.00690286,-0.04107638,-0.07404943,-0.00342064,-0.00115710,
 -0.00052546,-0.00105346,0.00000542,-0.00001940,-0.00002772,-0.00100443
 ,0.00354491,-0.00036749,0.04181785,0.07044909,-0.00338590,-0.00766800,
 0.02722856,-0.00007281,0.00095597,-0.00335898,0.00134183,-0.00007243,-
 0.00064624,0.00007920,0.00037093,-0.00146646,0.00143634,0.00585526,-0.
 02215484,0.00004794,0.00091437,0.00100329,0.00003741,-0.00088067,0.000
 35906,-0.00001283,0.00023679,0.00041828,-0.00003714,0.00009095,-0.0000
 4751,-0.00003074,-0.00020705,-0.00002127,-0.00000238,0.00085460,-0.000
 65813,-0.00037772,0.00025602,0.00054983,0.00307369,0.00023014,-0.00021
 172,-0.00067873,-0.00020032,0.00054842,-0.00014248,-0.00021788,-0.0002
 7788,-0.00015304,-0.00052372,-0.00096693,0.00093758,0.00058628,-0.0009
 6309,0.00060334,-0.00011187,0.00150817,0.00036039,-0.00030132,-0.00087
 521,-0.00002868,0.00028424,-0.00017400,-0.00028507,-0.00050977,0.00015
 854,-0.00103381,-0.00064227,0.00124119,0.00004160,-0.00091505,0.001032
 33,0.00005131,0.00087743,0.00036058,-0.00001237,-0.00024187,0.00040791
 ,-0.00003305,0.00021379,-0.00002318,-0.00004144,-0.00009081,-0.0000514
 5,-0.00018369,-0.00012617,-0.00021915,0.00000483,-0.00085342,-0.000638
 71,0.00037157,-0.00025627,0.00052893,-0.00307594,-0.00023200,-0.000215
 27,0.00067605,0.00022934,-0.00027442,0.00015063,0.00019578,0.00053806,
 0.00014520,0.00011951,0.00076178,0.00057859,0.00053035,-0.00095725,0.0
 0094949,-0.00058506,-0.00094980,0.00059505,0.00010866,0.00149656,0.000
 36431,0.00029806,-0.00088376,-0.00029347,0.00050330,0.00016398,-0.0000
 4276,-0.00027823,-0.00017330,-0.00021105,-0.00058597,-0.00033154,-0.00
 101943,0.00065388,0.00124764,-0.00123036,-0.00000174,-0.00213228,-0.05
 826980,0.00001494,-0.00067442,-0.00031683,-0.00000604,0.00022491,0.001
 21452,-0.00169874,0.00068931,0.00121361,0.00170100,0.00067880,0.000185
 89,-0.00028160,-0.00032942,0.00017871,0.00027484,-0.00034097,0.0570293
 5,0.00000395,-0.00061932,0.00001274,0.00002224,0.01284780,-0.00000167,
 -0.00000043,0.00007978,-0.00000493,-0.00001238,0.00029914,-0.00058426,
 -0.00000211,0.00031381,0.00057915,0.00023992,0.00024915,0.00012830,-0.
 00023828,0.00024419,-0.00012435,-0.00000731,-0.01342156,-0.00077693,0.
 00000913,-0.00133731,0.00166896,0.00001068,0.02271104,-0.00007857,-0.0
 0000141,0.00044928,-0.00089648,0.00020972,0.00040681,-0.00087660,-0.00
 021692,0.00041930,-0.00045667,-0.00051083,-0.00055619,-0.00047508,0.00
 050854,-0.00056705,0.00189350,-0.00000629,-0.02152590\\@
 The archive entry for this job was punched.


            THE IRISH PIG
 'TWAS AN EVENING IN NOVEMBER,
 AS I VERY WELL REMEMBER
 I WAS STROLLING DOWN THE STREET IN DRUNKEN PRIDE,
 BUT MY KNEES WERE ALL A'FLUTTER
 SO I LANDED IN THE GUTTER,
 AND A PIG CAME UP AND LAY DOWN BY MY SIDE.

 YES, I LAY THERE IN THE GUTTER
 THINKING THOUGHTS I COULD NOT UTTER
 WHEN A COLLEEN PASSING BY DID SOFTLY SAY,
 'YE CAN TELL A MAN THAT BOOZES
 BY THE COMPANY THAT HE CHOOSES.' -
 AT THAT, THE PIG GOT UP AND WALKED AWAY!
     -- THE ECONOMIST, AUGUST 23, 1986
 Job cpu time:       0 days 13 hours 10 minutes  8.2 seconds.
 Elapsed time:       0 days  3 hours 52 minutes 59.7 seconds.
 File lengths (MBytes):  RWF=     90 Int=      0 D2E=      0 Chk=     45 Scr=      1
 Normal termination of Gaussian 16 at Mon Jul 27 19:13:48 2020.
