 Entering Gaussian System, Link 0=g16
 Input=CFC-114.gjf
 Output=CFC-114.log
 Initial command:
 /apps/gaussian/g16c01/g16/l1.exe "/jobfs/11335671.gadi-pbs/Gau-1527380.inp" -scrdir="/jobfs/11335671.gadi-pbs/"
 Entering Link 1 = /apps/gaussian/g16c01/g16/l1.exe PID=   1527381.
  
 Copyright (c) 1988-2019, Gaussian, Inc.  All Rights Reserved.
  
 This is part of the Gaussian(R) 16 program.  It is based on
 the Gaussian(R) 09 system (copyright 2009, Gaussian, Inc.),
 the Gaussian(R) 03 system (copyright 2003, Gaussian, Inc.),
 the Gaussian(R) 98 system (copyright 1998, Gaussian, Inc.),
 the Gaussian(R) 94 system (copyright 1995, Gaussian, Inc.),
 the Gaussian 92(TM) system (copyright 1992, Gaussian, Inc.),
 the Gaussian 90(TM) system (copyright 1990, Gaussian, Inc.),
 the Gaussian 88(TM) system (copyright 1988, Gaussian, Inc.),
 the Gaussian 86(TM) system (copyright 1986, Carnegie Mellon
 University), and the Gaussian 82(TM) system (copyright 1983,
 Carnegie Mellon University). Gaussian is a federally registered
 trademark of Gaussian, Inc.
  
 This software contains proprietary and confidential information,
 including trade secrets, belonging to Gaussian, Inc.
  
 This software is provided under written license and may be
 used, copied, transmitted, or stored only in accord with that
 written license.
  
 The following legend is applicable only to US Government
 contracts under FAR:
  
                    RESTRICTED RIGHTS LEGEND
  
 Use, reproduction and disclosure by the US Government is
 subject to restrictions as set forth in subparagraphs (a)
 and (c) of the Commercial Computer Software - Restricted
 Rights clause in FAR 52.227-19.
  
 Gaussian, Inc.
 340 Quinnipiac St., Bldg. 40, Wallingford CT 06492
  
  
 ---------------------------------------------------------------
 Warning -- This program may not be used in any manner that
 competes with the business of Gaussian, Inc. or will provide
 assistance to any competitor of Gaussian, Inc.  The licensee
 of this program is prohibited from giving any competitor of
 Gaussian, Inc. access to this program.  By using this program,
 the user acknowledges that Gaussian, Inc. is engaged in the
 business of creating and licensing software in the field of
 computational chemistry and represents and warrants to the
 licensee that it is not a competitor of Gaussian, Inc. and that
 it will not use this program in any manner prohibited above.
 ---------------------------------------------------------------
  

 Cite this work as:
 Gaussian 16, Revision C.01,
 M. J. Frisch, G. W. Trucks, H. B. Schlegel, G. E. Scuseria, 
 M. A. Robb, J. R. Cheeseman, G. Scalmani, V. Barone, 
 G. A. Petersson, H. Nakatsuji, X. Li, M. Caricato, A. V. Marenich, 
 J. Bloino, B. G. Janesko, R. Gomperts, B. Mennucci, H. P. Hratchian, 
 J. V. Ortiz, A. F. Izmaylov, J. L. Sonnenberg, D. Williams-Young, 
 F. Ding, F. Lipparini, F. Egidi, J. Goings, B. Peng, A. Petrone, 
 T. Henderson, D. Ranasinghe, V. G. Zakrzewski, J. Gao, N. Rega, 
 G. Zheng, W. Liang, M. Hada, M. Ehara, K. Toyota, R. Fukuda, 
 J. Hasegawa, M. Ishida, T. Nakajima, Y. Honda, O. Kitao, H. Nakai, 
 T. Vreven, K. Throssell, J. A. Montgomery, Jr., J. E. Peralta, 
 F. Ogliaro, M. J. Bearpark, J. J. Heyd, E. N. Brothers, K. N. Kudin, 
 V. N. Staroverov, T. A. Keith, R. Kobayashi, J. Normand, 
 K. Raghavachari, A. P. Rendell, J. C. Burant, S. S. Iyengar, 
 J. Tomasi, M. Cossi, J. M. Millam, M. Klene, C. Adamo, R. Cammi, 
 J. W. Ochterski, R. L. Martin, K. Morokuma, O. Farkas, 
 J. B. Foresman, and D. J. Fox, Gaussian, Inc., Wallingford CT, 2019.
 
 ******************************************
 Gaussian 16:  ES64L-G16RevC.01  3-Jul-2019
                16-Sep-2020 
 ******************************************
 %NprocShared=4
 Will use up to    4 processors via shared memory.
 %chk=checkpoint.chk
 ----------------------------------------------------------------------
 # wB97xD/Gen Freq=(anharmonic,ReadAnharm) Opt=(VeryTight,ZMatrix,CalcA
 ll) Int=UltraFine
 ----------------------------------------------------------------------
 1/7=1,10=4,18=40,26=4,38=1,80=1/1,3;
 2/12=2,17=6,18=5,29=3,40=1/2;
 3/5=7,11=2,25=1,30=1,71=2,74=-58,75=-5,140=1/1,2,3;
 4//1;
 5/5=2,38=5/2;
 8/6=4,10=90,11=11/1;
 11/6=1,8=1,9=11,15=111,16=1/1,2,10;
 10/6=1/2;
 6/7=2,8=2,9=2,10=2,18=1,28=1/1;
 7/10=1,25=1/1,2,3,16;
 1/7=1,10=4,18=40,26=4,80=1/3(3);
 2/29=3/2;
 7/8=1,9=1,25=1,44=-1,71=2,72=1/16;
 99//99;
 2/29=3/2;
 3/5=7,6=1,11=2,25=1,30=1,71=2,74=-58,75=-5,82=7,140=1/1,2,3;
 4/5=5,16=3,69=1/1;
 5/5=2,38=5/2;
 8/6=4,10=90,11=11/1;
 11/6=1,8=1,9=11,15=111,16=1/1,2,10;
 10/6=1/2;
 7/10=1,25=1/1,2,3,16;
 1/7=1,10=4,18=40,26=4,80=1/3(-8);
 2/29=3/2;
 6/7=2,8=2,9=2,10=2,18=1,19=2,28=1/1;
 7/8=1,9=1,25=1,44=-1,71=1,72=1/16;
 99//99;
 --------------------------------------------
 CFC-114 - ClF2C-CClF2 ANHARMONIC FREQUENCIES
 --------------------------------------------
 Symbolic Z-matrix:
 Charge =  0 Multiplicity = 1
 C
 C                    1    r2
 F                    1    r3       2    a3
 Cl                   1    r4       2    a4       3    d4       0
 F                    1    r5       2    a5       3    d5       0
 F                    2    r6       1    a6       3    d6       0
 Cl                   2    r7       1    a7       3    d7       0
 F                    2    r8       1    a8       3    d8       0
       Variables:
  r2                    1.5394                   
  r3                    1.3628                   
  a3                  110.92                     
  r4                    1.7846                   
  a4                  112.28                     
  d4                  238.67                     
  r5                    1.3629                   
  a5                  110.93                     
  d5                  117.48                     
  r6                    1.3628                   
  a6                  110.92                     
  d6                   62.56                     
  r7                    1.7846                   
  a7                  112.28                     
  d7                  301.23                     
  r8                    1.3629                   
  a8                  110.93                     
  d8                  180.03                     
 

 GradGradGradGradGradGradGradGradGradGradGradGradGradGradGradGradGradGrad
 Berny optimization.
 Initialization pass.
                       ----------------------------
                       !    Initial Parameters    !
                       ! (Angstroms and Degrees)  !
 ----------------------                            ----------------------
 !      Name          Value   Derivative information (Atomic Units)     !
 ------------------------------------------------------------------------
 !       r2          1.5394   calculate D2E/DX2 analytically            !
 !       r3          1.3628   calculate D2E/DX2 analytically            !
 !       a3        110.92     calculate D2E/DX2 analytically            !
 !       r4          1.7846   calculate D2E/DX2 analytically            !
 !       a4        112.28     calculate D2E/DX2 analytically            !
 !       d4        238.67     calculate D2E/DX2 analytically            !
 !       r5          1.3629   calculate D2E/DX2 analytically            !
 !       a5        110.93     calculate D2E/DX2 analytically            !
 !       d5        117.48     calculate D2E/DX2 analytically            !
 !       r6          1.3628   calculate D2E/DX2 analytically            !
 !       a6        110.92     calculate D2E/DX2 analytically            !
 !       d6         62.56     calculate D2E/DX2 analytically            !
 !       r7          1.7846   calculate D2E/DX2 analytically            !
 !       a7        112.28     calculate D2E/DX2 analytically            !
 !       d7        301.23     calculate D2E/DX2 analytically            !
 !       r8          1.3629   calculate D2E/DX2 analytically            !
 !       a8        110.93     calculate D2E/DX2 analytically            !
 !       d8        180.03     calculate D2E/DX2 analytically            !
 ------------------------------------------------------------------------
 Trust Radius=3.00D-01 FncErr=1.00D-07 GrdErr=1.00D-06 EigMax=2.50D+02 EigMin=1.00D-04
 Number of steps in this run=     28 maximum allowed number of steps=    100.
 GradGradGradGradGradGradGradGradGradGradGradGradGradGradGradGradGradGrad

 ---------------------------------------------------------------------------------------------------
                            Z-MATRIX (ANGSTROMS AND DEGREES)
   CD    Cent   Atom    N1       Length/X        N2       Alpha/Y        N3        Beta/Z          J
 ---------------------------------------------------------------------------------------------------
      1      1  C 
      2      2  C        1   1.539400(     1)
      3      3  F        1   1.362800(     2)      2  110.920(     8)
      4      4  Cl       1   1.784600(     3)      2  112.280(     9)      3  238.670(    14)      0
      5      5  F        1   1.362900(     4)      2  110.930(    10)      3  117.480(    15)      0
      6      6  F        2   1.362800(     5)      1  110.920(    11)      3   62.560(    16)      0
      7      7  Cl       2   1.784600(     6)      1  112.280(    12)      3  301.230(    17)      0
      8      8  F        2   1.362900(     7)      1  110.930(    13)      3  180.030(    18)      0
 ---------------------------------------------------------------------------------------------------
                         Z-Matrix orientation:                         
 ---------------------------------------------------------------------
 Center     Atomic      Atomic             Coordinates (Angstroms)
 Number     Number       Type             X           Y           Z
 ---------------------------------------------------------------------
      1          6           0        0.000000    0.000000    0.000000
      2          6           0        0.000000    0.000000    1.539400
      3          9           0        1.272964    0.000000   -0.486607
      4         17           0       -0.858655    1.410574   -0.676601
      5          9           0       -0.587399   -1.129346   -0.486865
      6          9           0        0.586607    1.129748    2.026007
      7         17           0        0.856191   -1.412071    2.216001
      8          9           0       -1.272972   -0.000667    2.026265
 ---------------------------------------------------------------------
                    Distance matrix (angstroms):
                    1          2          3          4          5
     1  C    0.000000
     2  C    1.539400   0.000000
     3  F    1.362800   2.392727   0.000000
     4  Cl   1.784600   2.763633   2.563126   0.000000
     5  F    1.362900   2.392950   2.176321   2.561401   0.000000
     6  F    2.392727   1.362800   2.839128   3.077618   3.577194
     7  Cl   2.763633   1.784600   3.077618   4.390350   3.077234
     8  F    2.392950   1.362900   3.577194   3.077132   2.838969
                    6          7          8
     6  F    0.000000
     7  Cl   2.563126   0.000000
     8  F    2.176206   2.561523   0.000000
 Stoichiometry    C2Cl2F4
 Framework group  C1[X(C2Cl2F4)]
 Deg. of freedom    18
 Full point group                 C1      NOp   1
 Largest Abelian subgroup         C1      NOp   1
 Largest concise Abelian subgroup C1      NOp   1
                         Standard orientation:                         
 ---------------------------------------------------------------------
 Center     Atomic      Atomic             Coordinates (Angstroms)
 Number     Number       Type             X           Y           Z
 ---------------------------------------------------------------------
      1          6           0        0.608764   -0.471004    0.000693
      2          6           0       -0.608789    0.470971    0.000682
      3          9           0        0.589178   -1.291532    1.088615
      4         17           0        2.154393    0.421087   -0.000723
      5          9           0        0.589873   -1.291081   -1.087706
      6          9           0       -0.589233    1.291488    1.088613
      7         17           0       -2.154419   -0.421120   -0.000784
      8          9           0       -0.589754    1.291210   -1.087593
 ---------------------------------------------------------------------
 Rotational constants (GHZ):           2.1558845           1.1233043           1.0020111
 General basis read from cards:  (5D, 7F)
 There are   208 symmetry adapted cartesian basis functions of A   symmetry.
 There are   192 symmetry adapted basis functions of A   symmetry.
   192 basis functions,   392 primitive gaussians,   208 cartesian basis functions
    41 alpha electrons       41 beta electrons
       nuclear repulsion energy       603.5823269402 Hartrees.
 NAtoms=    8 NActive=    8 NUniq=    8 SFac= 1.00D+00 NAtFMM=   60 NAOKFM=F Big=F
 Integral buffers will be    131072 words long.
 Raffenetti 2 integral format.
 Two-electron integral symmetry is turned on.
 Nuclear repulsion after empirical dispersion term =      603.5796526521 Hartrees.
 One-electron integrals computed using PRISM.
 NBasis=   192 RedAO= T EigKep=  2.53D-04  NBF=   192
 NBsUse=   192 1.00D-06 EigRej= -1.00D+00 NBFU=   192
 ExpMin= 3.35D-02 ExpMax= 6.35D+04 ExpMxC= 2.17D+03 IAcc=3 IRadAn=         5 AccDes= 0.00D+00
 Harris functional with IExCor= 4639 and IRadAn=       5 diagonalized for initial guess.
 HarFok:  IExCor= 4639 AccDes= 0.00D+00 IRadAn=         5 IDoV= 1 UseB2=F ITyADJ=14
 ICtDFT=  3500011 ScaDFX=  1.000000  1.000000  1.000000  1.000000
 FoFCou: FMM=F IPFlag=           0 FMFlag=      100000 FMFlg1=           0
         NFxFlg=           0 DoJE=T BraDBF=F KetDBF=T FulRan=T
         wScrn=  0.000000 ICntrl=       500 IOpCl=  0 I1Cent=   200000004 NGrid=           0
         NMat0=    1 NMatS0=      1 NMatT0=    0 NMatD0=    1 NMtDS0=    0 NMtDT0=    0
 Petite list used in FoFCou.
 Requested convergence on RMS density matrix=1.00D-08 within 128 cycles.
 Requested convergence on MAX density matrix=1.00D-06.
 Requested convergence on             energy=1.00D-06.
 No special actions if energy rises.
 SCF Done:  E(RwB97XD) =  -1395.76618422     A.U. after   12 cycles
            NFock= 12  Conv=0.70D-08     -V/T= 2.0017
 DoSCS=F DFT=T ScalE2(SS,OS)=  1.000000  1.000000
 Range of M.O.s used for correlation:     1   192
 NBasis=   192 NAE=    41 NBE=    41 NFC=     0 NFV=     0
 NROrb=    192 NOA=    41 NOB=    41 NVA=   151 NVB=   151

 **** Warning!!: The largest alpha MO coefficient is  0.18079956D+02

 Symmetrizing basis deriv contribution to polar:
 IMax=3 JMax=2 DiffMx= 0.00D+00
 G2DrvN: will do     9 centers at a time, making    1 passes.
 Calling FoFCou, ICntrl=  3107 FMM=F I1Cent=   0 AccDes= 0.00D+00.
 End of G2Drv F.D. properties file   721 does not exist.
 End of G2Drv F.D. properties file   722 does not exist.
 End of G2Drv F.D. properties file   788 does not exist.
          IDoAtm=11111111
          Differentiating once with respect to electric field.
                with respect to dipole field.
          Differentiating once with respect to nuclear coordinates.
 CalDSu exits because no D1Ps are significant.
          There are    27 degrees of freedom in the 1st order CPHF.  IDoFFX=6 NUNeed=     3.
     24 vectors produced by pass  0 Test12= 2.29D-14 3.70D-09 XBig12= 2.73D+01 2.47D+00.
 AX will form    24 AO Fock derivatives at one time.
     24 vectors produced by pass  1 Test12= 2.29D-14 3.70D-09 XBig12= 3.41D+00 3.28D-01.
     24 vectors produced by pass  2 Test12= 2.29D-14 3.70D-09 XBig12= 4.34D-01 1.26D-01.
     24 vectors produced by pass  3 Test12= 2.29D-14 3.70D-09 XBig12= 1.91D-02 2.33D-02.
     24 vectors produced by pass  4 Test12= 2.29D-14 3.70D-09 XBig12= 2.03D-04 2.31D-03.
     24 vectors produced by pass  5 Test12= 2.29D-14 3.70D-09 XBig12= 1.70D-06 2.83D-04.
     24 vectors produced by pass  6 Test12= 2.29D-14 3.70D-09 XBig12= 1.22D-08 2.20D-05.
     13 vectors produced by pass  7 Test12= 2.29D-14 3.70D-09 XBig12= 9.16D-11 2.06D-06.
      4 vectors produced by pass  8 Test12= 2.29D-14 3.70D-09 XBig12= 5.76D-13 1.17D-07.
      3 vectors produced by pass  9 Test12= 2.29D-14 3.70D-09 XBig12= 3.44D-15 1.08D-08.
 InvSVY:  IOpt=1 It=  1 EMax= 3.55D-15
 Solved reduced A of dimension   188 with    27 vectors.
 Isotropic polarizability for W=    0.000000       59.08 Bohr**3.
 End of Minotr F.D. properties file   721 does not exist.
 End of Minotr F.D. properties file   722 does not exist.
 End of Minotr F.D. properties file   788 does not exist.

 **********************************************************************

            Population analysis using the SCF Density.

 **********************************************************************

 Orbital symmetries:
       Occupied  (A) (A) (A) (A) (A) (A) (A) (A) (A) (A) (A) (A)
                 (A) (A) (A) (A) (A) (A) (A) (A) (A) (A) (A) (A)
                 (A) (A) (A) (A) (A) (A) (A) (A) (A) (A) (A) (A)
                 (A) (A) (A) (A) (A)
       Virtual   (A) (A) (A) (A) (A) (A) (A) (A) (A) (A) (A) (A)
                 (A) (A) (A) (A) (A) (A) (A) (A) (A) (A) (A) (A)
                 (A) (A) (A) (A) (A) (A) (A) (A) (A) (A) (A) (A)
                 (A) (A) (A) (A) (A) (A) (A) (A) (A) (A) (A) (A)
                 (A) (A) (A) (A) (A) (A) (A) (A) (A) (A) (A) (A)
                 (A) (A) (A) (A) (A) (A) (A) (A) (A) (A) (A) (A)
                 (A) (A) (A) (A) (A) (A) (A) (A) (A) (A) (A) (A)
                 (A) (A) (A) (A) (A) (A) (A) (A) (A) (A) (A) (A)
                 (A) (A) (A) (A) (A) (A) (A) (A) (A) (A) (A) (A)
                 (A) (A) (A) (A) (A) (A) (A) (A) (A) (A) (A) (A)
                 (A) (A) (A) (A) (A) (A) (A) (A) (A) (A) (A) (A)
                 (A) (A) (A) (A) (A) (A) (A) (A) (A) (A) (A) (A)
                 (A) (A) (A) (A) (A) (A) (A)
 The electronic state is 1-A.
 Alpha  occ. eigenvalues -- -101.72664-101.72664 -24.87794 -24.87793 -24.87781
 Alpha  occ. eigenvalues --  -24.87780 -10.57495 -10.57476  -9.62637  -9.62636
 Alpha  occ. eigenvalues --   -7.37412  -7.37411  -7.36279  -7.36279  -7.36274
 Alpha  occ. eigenvalues --   -7.36273  -1.43757  -1.42231  -1.37056  -1.36191
 Alpha  occ. eigenvalues --   -1.01894  -1.00431  -0.88418  -0.79144  -0.73097
 Alpha  occ. eigenvalues --   -0.72266  -0.68725  -0.68422  -0.65321  -0.60140
 Alpha  occ. eigenvalues --   -0.57837  -0.57632  -0.56184  -0.55452  -0.53986
 Alpha  occ. eigenvalues --   -0.53586  -0.48699  -0.45805  -0.44807  -0.44218
 Alpha  occ. eigenvalues --   -0.43757
 Alpha virt. eigenvalues --    0.01453   0.05193   0.06732   0.07005   0.07248
 Alpha virt. eigenvalues --    0.07566   0.09809   0.09968   0.10122   0.11306
 Alpha virt. eigenvalues --    0.12116   0.12508   0.12982   0.14572   0.15448
 Alpha virt. eigenvalues --    0.16320   0.18878   0.20264   0.21438   0.21574
 Alpha virt. eigenvalues --    0.21657   0.23644   0.23802   0.24188   0.24251
 Alpha virt. eigenvalues --    0.24936   0.26202   0.27753   0.28280   0.28885
 Alpha virt. eigenvalues --    0.29157   0.29506   0.30100   0.31468   0.32212
 Alpha virt. eigenvalues --    0.33003   0.34015   0.36493   0.36598   0.37402
 Alpha virt. eigenvalues --    0.37642   0.38216   0.41407   0.41714   0.42316
 Alpha virt. eigenvalues --    0.42945   0.43096   0.45402   0.46340   0.47183
 Alpha virt. eigenvalues --    0.52975   0.53764   0.54442   0.54946   0.56078
 Alpha virt. eigenvalues --    0.58718   0.59421   0.59824   0.60608   0.69198
 Alpha virt. eigenvalues --    0.69535   0.70618   0.70888   0.74610   0.75823
 Alpha virt. eigenvalues --    0.76010   0.79904   0.81753   0.82121   0.82236
 Alpha virt. eigenvalues --    0.83210   0.84442   0.84590   0.84667   0.85484
 Alpha virt. eigenvalues --    0.85716   0.86482   0.86669   0.92221   0.94192
 Alpha virt. eigenvalues --    0.95258   0.96141   0.96652   0.97846   0.99515
 Alpha virt. eigenvalues --    1.00397   1.01713   1.04359   1.04712   1.07463
 Alpha virt. eigenvalues --    1.07481   1.08133   1.12272   1.14931   1.15426
 Alpha virt. eigenvalues --    1.19148   1.20445   1.24551   1.24799   1.29603
 Alpha virt. eigenvalues --    1.30678   1.45490   1.54245   1.55089   1.55282
 Alpha virt. eigenvalues --    1.55654   1.56377   1.73671   1.78010   1.78644
 Alpha virt. eigenvalues --    1.80802   1.86635   1.87671   1.89679   1.91875
 Alpha virt. eigenvalues --    1.98471   1.98862   2.01444   2.02279   2.04646
 Alpha virt. eigenvalues --    2.09860   2.10660   2.13205   2.17735   2.30077
 Alpha virt. eigenvalues --    2.30847   2.52826   2.76880   2.77650   2.78631
 Alpha virt. eigenvalues --    2.83650   2.84250   2.85954   2.88494   2.89398
 Alpha virt. eigenvalues --    2.90972   2.91346   2.95183   2.96039   2.98225
 Alpha virt. eigenvalues --    2.98319   2.98479   3.03626   3.06588   3.18837
 Alpha virt. eigenvalues --    3.22825   3.23951   3.55037   3.60605   3.62365
 Alpha virt. eigenvalues --    3.73208
          Condensed to atoms (all electrons):
               1          2          3          4          5          6
     1  C    5.090176   0.009880  -0.402656   0.277759  -0.401800  -0.019715
     2  C    0.009880   5.090159  -0.019716  -0.269494  -0.019658  -0.402575
     3  F   -0.402656  -0.019716  10.359399  -0.155158  -0.149289  -0.012563
     4  Cl   0.277759  -0.269494  -0.155158  17.763860  -0.155505  -0.009027
     5  F   -0.401800  -0.019658  -0.149289  -0.155505  10.358904   0.008158
     6  F   -0.019715  -0.402575  -0.012563  -0.009027   0.008158  10.359336
     7  Cl  -0.269499   0.277706  -0.009036   0.053709  -0.008992  -0.155160
     8  F   -0.019661  -0.401776   0.008157  -0.008999  -0.012607  -0.149316
               7          8
     1  C   -0.269499  -0.019661
     2  C    0.277706  -0.401776
     3  F   -0.009036   0.008157
     4  Cl   0.053709  -0.008999
     5  F   -0.008992  -0.012607
     6  F   -0.155160  -0.149316
     7  Cl  17.763930  -0.155490
     8  F   -0.155490  10.358881
 Mulliken charges:
               1
     1  C    1.735517
     2  C    1.735473
     3  F   -0.619139
     4  Cl  -0.497145
     5  F   -0.619212
     6  F   -0.619139
     7  Cl  -0.497168
     8  F   -0.619188
 Sum of Mulliken charges =  -0.00000
 Mulliken charges with hydrogens summed into heavy atoms:
               1
     1  C    1.735517
     2  C    1.735473
     3  F   -0.619139
     4  Cl  -0.497145
     5  F   -0.619212
     6  F   -0.619139
     7  Cl  -0.497168
     8  F   -0.619188
 APT charges:
               1
     1  C    1.275558
     2  C    1.275551
     3  F   -0.500067
     4  Cl  -0.275479
     5  F   -0.500009
     6  F   -0.500065
     7  Cl  -0.275481
     8  F   -0.500008
 Sum of APT charges =  -0.00000
 APT charges with hydrogens summed into heavy atoms:
               1
     1  C    1.275558
     2  C    1.275551
     3  F   -0.500067
     4  Cl  -0.275479
     5  F   -0.500009
     6  F   -0.500065
     7  Cl  -0.275481
     8  F   -0.500008
 Electronic spatial extent (au):  <R**2>=           1147.6401
 Charge=             -0.0000 electrons
 Dipole moment (field-independent basis, Debye):
    X=             -0.0002    Y=             -0.0002    Z=              0.0016  Tot=              0.0016
 Quadrupole moment (field-independent basis, Debye-Ang):
   XX=            -53.3829   YY=            -57.7695   ZZ=            -58.1935
   XY=              1.8946   XZ=              0.0001   YZ=             -0.0001
 Traceless Quadrupole moment (field-independent basis, Debye-Ang):
   XX=              3.0658   YY=             -1.3209   ZZ=             -1.7449
   XY=              1.8946   XZ=              0.0001   YZ=             -0.0001
 Octapole moment (field-independent basis, Debye-Ang**2):
  XXX=             -0.0011  YYY=              0.0002  ZZZ=              0.0043  XYY=              0.0001
  XXY=             -0.0002  XXZ=             -0.0175  XZZ=              0.0001  YZZ=              0.0001
  YYZ=              0.0010  XYZ=             -0.0093
 Hexadecapole moment (field-independent basis, Debye-Ang**3):
 XXXX=           -747.1518 YYYY=           -290.6323 ZZZZ=           -191.1412 XXXY=             13.1234
 XXXZ=             -0.0011 YYYX=            -10.0625 YYYZ=             -0.0005 ZZZX=             -0.0016
 ZZZY=             -0.0004 XXYY=           -176.1028 XXZZ=           -170.6258 YYZZ=            -81.0724
 XXYZ=             -0.0001 YYXZ=             -0.0005 ZZXY=             -3.6991
 N-N= 6.035796526521D+02 E-N=-4.525064312175D+03  KE= 1.393374625398D+03
  Exact polarizability:      72.010       7.301      54.532       0.000       0.000      50.709
 Approx polarizability:      73.033       9.648      63.422      -0.000      -0.000      60.706
 Calling FoFJK, ICntrl=    100127 FMM=F ISym2X=0 I1Cent= 0 IOpClX= 0 NMat=1 NMatS=1 NMatT=0.
 ***** Axes restored to original set *****
 -------------------------------------------------------------------
 Center     Atomic                   Forces (Hartrees/Bohr)
 Number     Number              X              Y              Z
 -------------------------------------------------------------------
      1        6           0.006008962   -0.010215722   -0.036473520
      2        6          -0.006302459    0.010069294    0.036475439
      3        9          -0.018594084    0.002413295    0.015596610
      4       17           0.004208704   -0.006648115    0.007245186
      5        9           0.006555103    0.017446617    0.015670686
      6        9          -0.006405383   -0.017610903   -0.015599289
      7       17          -0.003973793    0.006801173   -0.007244416
      8        9           0.018502950   -0.002255639   -0.015670695
 -------------------------------------------------------------------
 Cartesian Forces:  Max     0.036475439 RMS     0.015202191
 -----------------------------------------------------------------------------------------------
                       Internal Coordinate Forces (Hartree/Bohr or radian)
  Cent   Atom   N1       Length/X         N2         Alpha/Y        N3         Beta/Z          J
 -----------------------------------------------------------------------------------------------
      1  C 
      2  C        1  -0.002039(     1)
      3  F        1  -0.022937(     2)      2  -0.020420(     8)
      4  Cl       1  -0.010027(     3)      2  -0.012551(     9)      3   0.000431(    14)     0
      5  F        1  -0.022880(     4)      2  -0.020673(    10)      3   0.005377(    15)     0
      6  F        2  -0.022926(     5)      1  -0.020438(    11)      3  -0.005847(    16)     0
      7  Cl       2  -0.010035(     6)      1  -0.012537(    12)      3   0.000400(    17)     0
      8  F        2  -0.022879(     7)      1  -0.020675(    13)      3   0.005449(    18)     0
 -----------------------------------------------------------------------------------------------
 Internal  Forces:  Max     0.022937349 RMS     0.015637292

 GradGradGradGradGradGradGradGradGradGradGradGradGradGradGradGradGradGrad
 Berny optimization.
 Search for a local minimum.
 Step number   1 out of a maximum of   28
 All quantities printed in internal units (Hartrees-Bohrs-Radians)
 Second derivative matrix not updated -- analytic derivatives used.
 The second derivative matrix:
                          r2        r3        a3        r4        a4
           r2           0.27740
           r3           0.01583   0.34139
           a3           0.03074  -0.00736   0.41990
           r4           0.01191   0.03846  -0.03601   0.20709
           a4           0.03376  -0.03676   0.13115  -0.00890   0.39945
           d4           0.00001  -0.05182   0.08912   0.00039  -0.00026
           r5           0.01582   0.05155  -0.03807   0.03860  -0.03691
           a5           0.03075  -0.03805   0.15001  -0.03619   0.13157
           d5           0.00643   0.06377  -0.10529  -0.04826   0.08810
           r6           0.01583   0.00412   0.00023   0.00299   0.00013
           a6           0.03074   0.00023   0.00048   0.00183   0.01240
           d6          -0.00642  -0.00651   0.00033   0.00312  -0.00943
           r7           0.01191   0.00299   0.00183   0.00221   0.00917
           a7           0.03376   0.00013   0.01240   0.00917   0.02171
           d7           0.00000   0.00480  -0.00827  -0.00000  -0.00000
           r8           0.01582   0.00284   0.01730   0.00299   0.00012
           a8           0.03076   0.01731   0.03894   0.00183   0.01243
           d8           0.00643   0.00080  -0.00098  -0.00312   0.00946
                          d4        r5        a5        d5        r6
           d4           0.35501
           r5           0.05213   0.34127
           a5          -0.08947  -0.00756   0.41998
           d5          -0.17217   0.01260  -0.00656   0.41728
           r6           0.00480   0.00284   0.01731   0.00080   0.34141
           a6          -0.00827   0.01730   0.03894  -0.00098  -0.00737
           d6           0.00582  -0.00079   0.00098   0.00627  -0.01296
           r7          -0.00000   0.00299   0.00183  -0.00312   0.03846
           a7          -0.00000   0.00012   0.01242   0.00946  -0.03675
           d7           0.00084  -0.00480   0.00828   0.00582  -0.05182
           r8          -0.00480   0.00411   0.00022   0.00651   0.05157
           a8           0.00829   0.00022   0.00048  -0.00035  -0.03807
           d8           0.00582   0.00651  -0.00035  -0.00010   0.06381
                          a6        d6        r7        a7        d7
           a6           0.41991
           d6           0.00691   0.41638
           r7          -0.03601   0.04792   0.20708
           a7           0.13115  -0.08783  -0.00889   0.39943
           d7           0.08912  -0.17117   0.00037  -0.00024   0.35494
           r8          -0.03809  -0.06379   0.03859  -0.03690   0.05210
           a8           0.15005   0.10534  -0.03618   0.13154  -0.08945
           d8          -0.10532  -0.23389  -0.04824   0.08808  -0.17210
                          r8        a8        d8
           r8           0.34128
           a8          -0.00756   0.41999
           d8           0.01266  -0.00661   0.41731
 ITU=  0
     Eigenvalues ---    0.00999   0.10838   0.14092   0.15300   0.15396
     Eigenvalues ---    0.22710   0.24057   0.26773   0.28999   0.33169
     Eigenvalues ---    0.34931   0.36982   0.42161   0.61229   0.64459
     Eigenvalues ---    0.67147   0.73428   0.76982
 RFO step:  Lambda=-9.56454470D-03 EMin= 9.98984688D-03
 Linear search not attempted -- first point.
 Variable       Old X    -DE/DX   Delta X   Delta X   Delta X     New X
                                 (Linear)    (Quad)   (Total)
    r2        2.90904  -0.00204   0.00000   0.02692   0.02692   2.93596
    r3        2.57532  -0.02294   0.00000  -0.06127  -0.06127   2.51405
    a3        1.93592  -0.02042   0.00000  -0.02972  -0.02972   1.90620
    r4        3.37241  -0.01003   0.00000  -0.02768  -0.02768   3.34472
    a4        1.95966  -0.01255   0.00000  -0.02708  -0.02708   1.93258
    d4        4.16558   0.00043   0.00000   0.01288   0.01288   4.17845
    r5        2.57551  -0.02288   0.00000  -0.06121  -0.06121   2.51430
    a5        1.93609  -0.02067   0.00000  -0.03085  -0.03085   1.90524
    d5        2.05041   0.00538   0.00000   0.02475   0.02475   2.07516
    r6        2.57532  -0.02293   0.00000  -0.06122  -0.06122   2.51410
    a6        1.93592  -0.02044   0.00000  -0.02979  -0.02979   1.90613
    d6        1.09188  -0.00585   0.00000  -0.02025  -0.02025   1.07162
    r7        3.37241  -0.01003   0.00000  -0.02740  -0.02740   3.34500
    a7        1.95966  -0.01254   0.00000  -0.02739  -0.02739   1.93227
    d7        5.25746   0.00040   0.00000  -0.00624  -0.00624   5.25122
    r8        2.57551  -0.02288   0.00000  -0.06148  -0.06148   2.51402
    a8        1.93609  -0.02067   0.00000  -0.03042  -0.03042   1.90567
    d8        3.14212   0.00545   0.00000   0.00564   0.00564   3.14776
         Item               Value     Threshold  Converged?
 Maximum Force            0.022937     0.000002     NO 
 RMS     Force            0.015637     0.000001     NO 
 Maximum Displacement     0.061483     0.000006     NO 
 RMS     Displacement     0.036256     0.000004     NO 
 Predicted change in Energy=-4.895425D-03
 GradGradGradGradGradGradGradGradGradGradGradGradGradGradGradGradGradGrad

 ---------------------------------------------------------------------------------------------------
                            Z-MATRIX (ANGSTROMS AND DEGREES)
   CD    Cent   Atom    N1       Length/X        N2       Alpha/Y        N3        Beta/Z          J
 ---------------------------------------------------------------------------------------------------
      1      1  C 
      2      2  C        1   1.553645(     1)
      3      3  F        1   1.330378(     2)      2  109.217(     8)
      4      4  Cl       1   1.769952(     3)      2  110.729(     9)      3  239.408(    14)      0
      5      5  F        1   1.330510(     4)      2  109.162(    10)      3  118.898(    15)      0
      6      6  F        2   1.330404(     5)      1  109.213(    11)      3   61.400(    16)      0
      7      7  Cl       2   1.770099(     6)      1  110.711(    12)      3  300.873(    17)      0
      8      8  F        2   1.330364(     7)      1  109.187(    13)      3  180.353(    18)      0
 ---------------------------------------------------------------------------------------------------
                         Z-Matrix orientation:                         
 ---------------------------------------------------------------------
 Center     Atomic      Atomic             Coordinates (Angstroms)
 Number     Number       Type             X           Y           Z
 ---------------------------------------------------------------------
      1          6           0        0.000000    0.000000    0.000000
      2          6           0        0.000000    0.000000    1.553645
      3          9           0        1.256244    0.000000   -0.437899
      4         17           0       -0.842463    1.424967   -0.626462
      5          9           0       -0.607346   -1.100294   -0.436738
      6          9           0        0.601389    1.103006    1.991461
      7         17           0        0.849600   -1.421113    2.179638
      8          9           0       -1.256441   -0.007746    1.990869
 ---------------------------------------------------------------------
                    Distance matrix (angstroms):
                    1          2          3          4          5
     1  C    0.000000
     2  C    1.553645   0.000000
     3  F    1.330378   2.354654   0.000000
     4  Cl   1.769952   2.737360   2.543749   0.000000
     5  F    1.330510   2.353962   2.164166   2.543270   0.000000
     6  F    2.354614   1.330404   2.747226   3.006973   3.494527
     7  Cl   2.737189   1.770099   3.006064   4.340212   3.011816
     8  F    2.354201   1.330364   3.494647   3.012385   2.740120
                    6          7          8
     6  F    0.000000
     7  Cl   2.543265   0.000000
     8  F    2.164556   2.543354   0.000000
 Stoichiometry    C2Cl2F4
 Framework group  C1[X(C2Cl2F4)]
 Deg. of freedom    18
 Full point group                 C1      NOp   1
 Largest Abelian subgroup         C1      NOp   1
 Largest concise Abelian subgroup C1      NOp   1
                         Standard orientation:                         
 ---------------------------------------------------------------------
 Center     Atomic      Atomic             Coordinates (Angstroms)
 Number     Number       Type             X           Y           Z
 ---------------------------------------------------------------------
      1          6           0        0.598419   -0.495243   -0.000764
      2          6           0       -0.598246    0.495617   -0.000871
      3          9           0        0.526195   -1.268966    1.079070
      4         17           0        2.136678    0.380240    0.003375
      5          9           0        0.529647   -1.263210   -1.085085
      6          9           0       -0.526877    1.268412    1.079716
      7         17           0       -2.136358   -0.380423    0.003096
      8          9           0       -0.529684    1.263859   -1.084833
 ---------------------------------------------------------------------
 Rotational constants (GHZ):           2.2280973           1.1537412           1.0380374
 Basis read from rwf:  (5D, 7F)
 There are   208 symmetry adapted cartesian basis functions of A   symmetry.
 There are   192 symmetry adapted basis functions of A   symmetry.
   192 basis functions,   392 primitive gaussians,   208 cartesian basis functions
    41 alpha electrons       41 beta electrons
       nuclear repulsion energy       612.7235761791 Hartrees.
 NAtoms=    8 NActive=    8 NUniq=    8 SFac= 1.00D+00 NAtFMM=   60 NAOKFM=F Big=F
 Integral buffers will be    131072 words long.
 Raffenetti 2 integral format.
 Two-electron integral symmetry is turned on.
 Nuclear repulsion after empirical dispersion term =      612.7210101659 Hartrees.
 One-electron integrals computed using PRISM.
 NBasis=   192 RedAO= T EigKep=  2.45D-04  NBF=   192
 NBsUse=   192 1.00D-06 EigRej= -1.00D+00 NBFU=   192
 Initial guess from the checkpoint file:  "checkpoint.chk"
 B after Tr=    -0.000000    0.000000    0.000000
         Rot=    0.999939   -0.000094    0.000020    0.011051 Ang=  -1.27 deg.
 ExpMin= 3.35D-02 ExpMax= 6.35D+04 ExpMxC= 2.17D+03 IAcc=3 IRadAn=         5 AccDes= 0.00D+00
 Harris functional with IExCor= 4639 and IRadAn=       5 diagonalized for initial guess.
 HarFok:  IExCor= 4639 AccDes= 0.00D+00 IRadAn=         5 IDoV= 1 UseB2=F ITyADJ=14
 ICtDFT=  3500011 ScaDFX=  1.000000  1.000000  1.000000  1.000000
 FoFCou: FMM=F IPFlag=           0 FMFlag=      100000 FMFlg1=           0
         NFxFlg=           0 DoJE=T BraDBF=F KetDBF=T FulRan=T
         wScrn=  0.000000 ICntrl=       500 IOpCl=  0 I1Cent=   200000004 NGrid=           0
         NMat0=    1 NMatS0=      1 NMatT0=    0 NMatD0=    1 NMtDS0=    0 NMtDT0=    0
 Petite list used in FoFCou.
 Requested convergence on RMS density matrix=1.00D-08 within 128 cycles.
 Requested convergence on MAX density matrix=1.00D-06.
 Requested convergence on             energy=1.00D-06.
 No special actions if energy rises.
 SCF Done:  E(RwB97XD) =  -1395.77079675     A.U. after   11 cycles
            NFock= 11  Conv=0.52D-08     -V/T= 2.0015
 DoSCS=F DFT=T ScalE2(SS,OS)=  1.000000  1.000000
 Range of M.O.s used for correlation:     1   192
 NBasis=   192 NAE=    41 NBE=    41 NFC=     0 NFV=     0
 NROrb=    192 NOA=    41 NOB=    41 NVA=   151 NVB=   151

 **** Warning!!: The largest alpha MO coefficient is  0.17721973D+02

 Symmetrizing basis deriv contribution to polar:
 IMax=3 JMax=2 DiffMx= 0.00D+00
 G2DrvN: will do     9 centers at a time, making    1 passes.
 Calling FoFCou, ICntrl=  3107 FMM=F I1Cent=   0 AccDes= 0.00D+00.
 End of G2Drv F.D. properties file   721 does not exist.
 End of G2Drv F.D. properties file   722 does not exist.
 End of G2Drv F.D. properties file   788 does not exist.
          IDoAtm=11111111
          Differentiating once with respect to electric field.
                with respect to dipole field.
          Differentiating once with respect to nuclear coordinates.
 CalDSu exits because no D1Ps are significant.
          There are    27 degrees of freedom in the 1st order CPHF.  IDoFFX=6 NUNeed=     3.
     24 vectors produced by pass  0 Test12= 2.29D-14 3.70D-09 XBig12= 2.64D+01 2.25D+00.
 AX will form    24 AO Fock derivatives at one time.
     24 vectors produced by pass  1 Test12= 2.29D-14 3.70D-09 XBig12= 3.21D+00 3.33D-01.
     24 vectors produced by pass  2 Test12= 2.29D-14 3.70D-09 XBig12= 3.18D-01 8.95D-02.
     24 vectors produced by pass  3 Test12= 2.29D-14 3.70D-09 XBig12= 9.80D-03 2.00D-02.
     24 vectors produced by pass  4 Test12= 2.29D-14 3.70D-09 XBig12= 9.71D-05 1.98D-03.
     24 vectors produced by pass  5 Test12= 2.29D-14 3.70D-09 XBig12= 8.73D-07 1.63D-04.
     24 vectors produced by pass  6 Test12= 2.29D-14 3.70D-09 XBig12= 1.02D-08 1.57D-05.
     13 vectors produced by pass  7 Test12= 2.29D-14 3.70D-09 XBig12= 6.84D-11 1.39D-06.
      4 vectors produced by pass  8 Test12= 2.29D-14 3.70D-09 XBig12= 5.36D-13 1.59D-07.
      2 vectors produced by pass  9 Test12= 2.29D-14 3.70D-09 XBig12= 3.40D-15 1.47D-08.
 InvSVY:  IOpt=1 It=  1 EMax= 6.22D-15
 Solved reduced A of dimension   187 with    27 vectors.
 Isotropic polarizability for W=    0.000000       57.89 Bohr**3.
 End of Minotr F.D. properties file   721 does not exist.
 End of Minotr F.D. properties file   722 does not exist.
 End of Minotr F.D. properties file   788 does not exist.
 Calling FoFJK, ICntrl=    100127 FMM=F ISym2X=0 I1Cent= 0 IOpClX= 0 NMat=1 NMatS=1 NMatT=0.
 ***** Axes restored to original set *****
 -------------------------------------------------------------------
 Center     Atomic                   Forces (Hartrees/Bohr)
 Number     Number              X              Y              Z
 -------------------------------------------------------------------
      1        6          -0.000752168    0.001019174    0.000835079
      2        6           0.000792480   -0.001221973   -0.000840604
      3        9           0.002136304    0.000172979   -0.001018863
      4       17          -0.000111856    0.000244679   -0.000108556
      5        9          -0.001071139   -0.001852414   -0.001014651
      6        9           0.001045579    0.001866212    0.001021705
      7       17           0.000113416   -0.000245950    0.000110763
      8        9          -0.002152617    0.000017294    0.001015127
 -------------------------------------------------------------------
 Cartesian Forces:  Max     0.002152617 RMS     0.001076723
 -----------------------------------------------------------------------------------------------
                       Internal Coordinate Forces (Hartree/Bohr or radian)
  Cent   Atom   N1       Length/X         N2         Alpha/Y        N3         Beta/Z          J
 -----------------------------------------------------------------------------------------------
      1  C 
      2  C        1   0.001307(     1)
      3  F        1   0.002353(     2)      2   0.000651(     8)
      4  Cl       1   0.000289(     3)      2   0.000023(     9)      3   0.000088(    14)     0
      5  F        1   0.002354(     4)      2   0.000644(    10)      3   0.000101(    15)     0
      6  F        2   0.002356(     5)      1   0.000656(    11)      3  -0.000059(    16)     0
      7  Cl       2   0.000291(     6)      1   0.000028(    12)      3  -0.000090(    17)     0
      8  F        2   0.002367(     7)      1   0.000632(    13)      3  -0.000073(    18)     0
 -----------------------------------------------------------------------------------------------
 Internal  Forces:  Max     0.002366525 RMS     0.001197399

 GradGradGradGradGradGradGradGradGradGradGradGradGradGradGradGradGradGrad
 Berny optimization.
 Search for a local minimum.
 Step number   2 out of a maximum of   28
 All quantities printed in internal units (Hartrees-Bohrs-Radians)
 Second derivative matrix not updated -- analytic derivatives used.
 DE= -4.61D-03 DEPred=-4.90D-03 R= 9.42D-01
 TightC=F SS=  1.41D+00  RLast= 1.54D-01 DXNew= 5.0454D-01 4.6146D-01
 Trust test= 9.42D-01 RLast= 1.54D-01 DXMaxT set to 4.61D-01
 The second derivative matrix:
                          r2        r3        a3        r4        a4
           r2           0.27150
           r3           0.01891   0.42419
           a3           0.03887   0.00779   0.44613
           r4           0.01361   0.04070  -0.03697   0.22731
           a4           0.03918  -0.03597   0.12985  -0.00120   0.41698
           d4          -0.00022  -0.05478   0.08968  -0.00007  -0.00049
           r5           0.01889   0.05391  -0.03507   0.04074  -0.03594
           a5           0.03873  -0.03511   0.14624  -0.03697   0.12981
           d5           0.00731   0.06314  -0.10423  -0.05079   0.08866
           r6           0.01891   0.00470  -0.00028   0.00327  -0.00009
           a6           0.03880  -0.00028   0.00152   0.00255   0.01639
           d6          -0.00770  -0.00757   0.00030   0.00324  -0.01240
           r7           0.01364   0.00328   0.00258   0.00252   0.00987
           a7           0.03931  -0.00009   0.01656   0.00987   0.02182
           d7          -0.00022   0.00560  -0.01097   0.00002   0.00002
           r8           0.01887   0.00445   0.02052   0.00326  -0.00003
           a8           0.03866   0.02053   0.04482   0.00250   0.01557
           d8           0.00727   0.00071  -0.00126  -0.00331   0.01187
                          d4        r5        a5        d5        r6
           d4           0.37999
           r5           0.05491   0.42393
           a5          -0.08977   0.00782   0.44593
           d5          -0.18202   0.00970  -0.00306   0.43107
           r6           0.00560   0.00445   0.02054   0.00070   0.42413
           a6          -0.01088   0.02053   0.04484  -0.00126   0.00783
           d6           0.00756  -0.00066   0.00130   0.00658  -0.00959
           r7           0.00001   0.00326   0.00251  -0.00330   0.04074
           a7           0.00002  -0.00003   0.01565   0.01194  -0.03599
           d7           0.00055  -0.00562   0.01051   0.00746  -0.05490
           r8          -0.00562   0.00471  -0.00048   0.00757   0.05385
           a8           0.01044  -0.00047   0.00178  -0.00057  -0.03506
           d8           0.00743   0.00757  -0.00057   0.00024   0.06299
                          a6        d6        r7        a7        d7
           a6           0.44604
           d6           0.00222   0.43052
           r7          -0.03700   0.05079   0.22720
           a7           0.12991  -0.08874  -0.00117   0.41740
           d7           0.08974  -0.18193  -0.00022  -0.00050   0.38041
           r8          -0.03504  -0.06298   0.04073  -0.03596   0.05490
           a8           0.14617   0.10437  -0.03697   0.12980  -0.08968
           d8          -0.10421  -0.23494  -0.05077   0.08872  -0.18196
                          r8        a8        d8
           r8           0.42420
           a8           0.00780   0.44569
           d8           0.00957  -0.00308   0.43052
 ITU=  1  0
     Eigenvalues ---    0.01255   0.11982   0.15779   0.17711   0.18204
     Eigenvalues ---    0.23794   0.25844   0.28662   0.35077   0.37755
     Eigenvalues ---    0.42037   0.45137   0.50866   0.64489   0.66759
     Eigenvalues ---    0.69523   0.75127   0.79314
 RFO step:  Lambda=-1.96397556D-05 EMin= 1.25472859D-02
 Quintic linear search produced a step of -0.05731.
 Variable       Old X    -DE/DX   Delta X   Delta X   Delta X     New X
                                 (Linear)    (Quad)   (Total)
    r2        2.93596   0.00131  -0.00154   0.00510   0.00355   2.93952
    r3        2.51405   0.00235   0.00351   0.00156   0.00507   2.51912
    a3        1.90620   0.00065   0.00170  -0.00150   0.00020   1.90640
    r4        3.34472   0.00029   0.00159  -0.00237  -0.00079   3.34394
    a4        1.93258   0.00002   0.00155  -0.00151   0.00004   1.93262
    d4        4.17845   0.00009  -0.00074   0.00152   0.00078   4.17923
    r5        2.51430   0.00235   0.00351   0.00126   0.00477   2.51906
    a5        1.90524   0.00064   0.00177  -0.00042   0.00135   1.90660
    d5        2.07516   0.00010  -0.00142   0.00123  -0.00019   2.07497
    r6        2.51410   0.00236   0.00351   0.00151   0.00501   2.51911
    a6        1.90613   0.00066   0.00171  -0.00145   0.00026   1.90639
    d6        1.07162  -0.00006   0.00116  -0.00723  -0.00607   1.06555
    r7        3.34500   0.00029   0.00157  -0.00270  -0.00113   3.34387
    a7        1.93227   0.00003   0.00157  -0.00115   0.00042   1.93269
    d7        5.25122  -0.00009   0.00036  -0.00700  -0.00664   5.24458
    r8        2.51402   0.00237   0.00352   0.00156   0.00509   2.51911
    a8        1.90567   0.00063   0.00174  -0.00088   0.00087   1.90654
    d8        3.14776  -0.00007  -0.00032  -0.00712  -0.00745   3.14031
         Item               Value     Threshold  Converged?
 Maximum Force            0.002367     0.000002     NO 
 RMS     Force            0.001197     0.000001     NO 
 Maximum Displacement     0.007446     0.000006     NO 
 RMS     Displacement     0.003755     0.000004     NO 
 Predicted change in Energy=-2.630123D-05
 GradGradGradGradGradGradGradGradGradGradGradGradGradGradGradGradGradGrad

 ---------------------------------------------------------------------------------------------------
                            Z-MATRIX (ANGSTROMS AND DEGREES)
   CD    Cent   Atom    N1       Length/X        N2       Alpha/Y        N3        Beta/Z          J
 ---------------------------------------------------------------------------------------------------
      1      1  C 
      2      2  C        1   1.555525(     1)
      3      3  F        1   1.333059(     2)      2  109.229(     8)
      4      4  Cl       1   1.769535(     3)      2  110.731(     9)      3  239.452(    14)      0
      5      5  F        1   1.333031(     4)      2  109.240(    10)      3  118.887(    15)      0
      6      6  F        2   1.333057(     5)      1  109.228(    11)      3   61.052(    16)      0
      7      7  Cl       2   1.769500(     6)      1  110.735(    12)      3  300.492(    17)      0
      8      8  F        2   1.333055(     7)      1  109.236(    13)      3  179.927(    18)      0
 ---------------------------------------------------------------------------------------------------
                         Z-Matrix orientation:                         
 ---------------------------------------------------------------------
 Center     Atomic      Atomic             Coordinates (Angstroms)
 Number     Number       Type             X           Y           Z
 ---------------------------------------------------------------------
      1          6           0        0.000000    0.000000    0.000000
      2          6           0        0.000000    0.000000    1.555525
      3          9           0        1.258688    0.000000   -0.439033
      4         17           0       -0.841138    1.425266   -0.626385
      5          9           0       -0.608001   -1.101976   -0.439267
      6          9           0        0.609231    1.101428    1.994542
      7         17           0        0.839726   -1.426014    2.182002
      8          9           0       -1.258626    0.001612    1.994723
 ---------------------------------------------------------------------
                    Distance matrix (angstroms):
                    1          2          3          4          5
     1  C    0.000000
     2  C    1.555525   0.000000
     3  F    1.333059   2.358508   0.000000
     4  Cl   1.769535   2.738544   2.544750   0.000000
     5  F    1.333031   2.358646   2.167690   2.544861   0.000000
     6  F    2.358496   1.333057   2.749041   3.012922   3.501438
     7  Cl   2.738574   1.769500   3.013117   4.340753   3.011970
     8  F    2.358615   1.333055   3.501435   3.011858   2.750551
                    6          7          8
     6  F    0.000000
     7  Cl   2.544844   0.000000
     8  F    2.167598   2.544852   0.000000
 Stoichiometry    C2Cl2F4
 Framework group  C1[X(C2Cl2F4)]
 Deg. of freedom    18
 Full point group                 C1      NOp   1
 Largest Abelian subgroup         C1      NOp   1
 Largest concise Abelian subgroup C1      NOp   1
                         Standard orientation:                         
 ---------------------------------------------------------------------
 Center     Atomic      Atomic             Coordinates (Angstroms)
 Number     Number       Type             X           Y           Z
 ---------------------------------------------------------------------
      1          6           0        0.599957   -0.494956    0.000139
      2          6           0       -0.599997    0.494877    0.000160
      3          9           0        0.531897   -1.267428    1.084437
      4         17           0        2.136266    0.383114   -0.000674
      5          9           0        0.531205   -1.268589   -1.083253
      6          9           0       -0.531751    1.267504    1.084333
      7         17           0       -2.136331   -0.383079   -0.000623
      8          9           0       -0.531201    1.268500   -1.083265
 ---------------------------------------------------------------------
 Rotational constants (GHZ):           2.2205681           1.1523573           1.0364282
 Basis read from rwf:  (5D, 7F)
 There are   208 symmetry adapted cartesian basis functions of A   symmetry.
 There are   192 symmetry adapted basis functions of A   symmetry.
   192 basis functions,   392 primitive gaussians,   208 cartesian basis functions
    41 alpha electrons       41 beta electrons
       nuclear repulsion energy       612.0853922217 Hartrees.
 NAtoms=    8 NActive=    8 NUniq=    8 SFac= 1.00D+00 NAtFMM=   60 NAOKFM=F Big=F
 Integral buffers will be    131072 words long.
 Raffenetti 2 integral format.
 Two-electron integral symmetry is turned on.
 Nuclear repulsion after empirical dispersion term =      612.0828180628 Hartrees.
 One-electron integrals computed using PRISM.
 NBasis=   192 RedAO= T EigKep=  2.47D-04  NBF=   192
 NBsUse=   192 1.00D-06 EigRej= -1.00D+00 NBFU=   192
 Initial guess from the checkpoint file:  "checkpoint.chk"
 B after Tr=     0.000000   -0.000000   -0.000000
         Rot=    1.000000    0.000124   -0.000036   -0.000715 Ang=   0.08 deg.
 Requested convergence on RMS density matrix=1.00D-08 within 128 cycles.
 Requested convergence on MAX density matrix=1.00D-06.
 Requested convergence on             energy=1.00D-06.
 No special actions if energy rises.
 SCF Done:  E(RwB97XD) =  -1395.77082331     A.U. after    9 cycles
            NFock=  9  Conv=0.88D-08     -V/T= 2.0015
 DoSCS=F DFT=T ScalE2(SS,OS)=  1.000000  1.000000
 Range of M.O.s used for correlation:     1   192
 NBasis=   192 NAE=    41 NBE=    41 NFC=     0 NFV=     0
 NROrb=    192 NOA=    41 NOB=    41 NVA=   151 NVB=   151

 **** Warning!!: The largest alpha MO coefficient is  0.17715144D+02

 Symmetrizing basis deriv contribution to polar:
 IMax=3 JMax=2 DiffMx= 0.00D+00
 G2DrvN: will do     9 centers at a time, making    1 passes.
 Calling FoFCou, ICntrl=  3107 FMM=F I1Cent=   0 AccDes= 0.00D+00.
 End of G2Drv F.D. properties file   721 does not exist.
 End of G2Drv F.D. properties file   722 does not exist.
 End of G2Drv F.D. properties file   788 does not exist.
          IDoAtm=11111111
          Differentiating once with respect to electric field.
                with respect to dipole field.
          Differentiating once with respect to nuclear coordinates.
 CalDSu exits because no D1Ps are significant.
          There are    27 degrees of freedom in the 1st order CPHF.  IDoFFX=6 NUNeed=     3.
     24 vectors produced by pass  0 Test12= 2.29D-14 3.70D-09 XBig12= 2.64D+01 2.24D+00.
 AX will form    24 AO Fock derivatives at one time.
     24 vectors produced by pass  1 Test12= 2.29D-14 3.70D-09 XBig12= 3.23D+00 3.32D-01.
     24 vectors produced by pass  2 Test12= 2.29D-14 3.70D-09 XBig12= 3.23D-01 9.23D-02.
     24 vectors produced by pass  3 Test12= 2.29D-14 3.70D-09 XBig12= 9.95D-03 2.26D-02.
     24 vectors produced by pass  4 Test12= 2.29D-14 3.70D-09 XBig12= 9.73D-05 1.96D-03.
     24 vectors produced by pass  5 Test12= 2.29D-14 3.70D-09 XBig12= 9.17D-07 1.79D-04.
     24 vectors produced by pass  6 Test12= 2.29D-14 3.70D-09 XBig12= 1.02D-08 1.57D-05.
     13 vectors produced by pass  7 Test12= 2.29D-14 3.70D-09 XBig12= 6.60D-11 1.32D-06.
      4 vectors produced by pass  8 Test12= 2.29D-14 3.70D-09 XBig12= 5.14D-13 1.52D-07.
      2 vectors produced by pass  9 Test12= 2.29D-14 3.70D-09 XBig12= 3.30D-15 1.49D-08.
 InvSVY:  IOpt=1 It=  1 EMax= 6.22D-15
 Solved reduced A of dimension   187 with    27 vectors.
 Isotropic polarizability for W=    0.000000       57.95 Bohr**3.
 End of Minotr F.D. properties file   721 does not exist.
 End of Minotr F.D. properties file   722 does not exist.
 End of Minotr F.D. properties file   788 does not exist.
 Calling FoFJK, ICntrl=    100127 FMM=F ISym2X=0 I1Cent= 0 IOpClX= 0 NMat=1 NMatS=1 NMatT=0.
 ***** Axes restored to original set *****
 -------------------------------------------------------------------
 Center     Atomic                   Forces (Hartrees/Bohr)
 Number     Number              X              Y              Z
 -------------------------------------------------------------------
      1        6          -0.000010376    0.000066625    0.000116317
      2        6           0.000009658   -0.000016923   -0.000116672
      3        9          -0.000029421   -0.000046727    0.000007256
      4       17          -0.000016062    0.000013371   -0.000018091
      5        9           0.000030882    0.000016564    0.000005247
      6        9          -0.000027450   -0.000017408   -0.000005614
      7       17           0.000012813   -0.000016270    0.000018598
      8        9           0.000029955    0.000000769   -0.000007041
 -------------------------------------------------------------------
 Cartesian Forces:  Max     0.000116672 RMS     0.000040825
 -----------------------------------------------------------------------------------------------
                       Internal Coordinate Forces (Hartree/Bohr or radian)
  Cent   Atom   N1       Length/X         N2         Alpha/Y        N3         Beta/Z          J
 -----------------------------------------------------------------------------------------------
      1  C 
      2  C        1  -0.000111(     1)
      3  F        1  -0.000030(     2)      2   0.000007(     8)
      4  Cl       1   0.000025(     3)      2   0.000033(     9)      3  -0.000022(    14)     0
      5  F        1  -0.000030(     4)      2   0.000012(    10)      3  -0.000045(    15)     0
      6  F        2  -0.000029(     5)      1   0.000010(    11)      3   0.000037(    16)     0
      7  Cl       2   0.000026(     6)      1   0.000034(    12)      3   0.000009(    17)     0
      8  F        2  -0.000031(     7)      1   0.000008(    13)      3  -0.000002(    18)     0
 -----------------------------------------------------------------------------------------------
 Internal  Forces:  Max     0.000110728 RMS     0.000036284

 GradGradGradGradGradGradGradGradGradGradGradGradGradGradGradGradGradGrad
 Berny optimization.
 Search for a local minimum.
 Step number   3 out of a maximum of   28
 All quantities printed in internal units (Hartrees-Bohrs-Radians)
 Second derivative matrix not updated -- analytic derivatives used.
 DE= -2.66D-05 DEPred=-2.63D-05 R= 1.01D+00
 TightC=F SS=  1.41D+00  RLast= 1.59D-02 DXNew= 7.7608D-01 4.7794D-02
 Trust test= 1.01D+00 RLast= 1.59D-02 DXMaxT set to 4.61D-01
 The second derivative matrix:
                          r2        r3        a3        r4        a4
           r2           0.26833
           r3           0.01860   0.41663
           a3           0.03809   0.00730   0.44288
           r4           0.01356   0.04054  -0.03679   0.22734
           a4           0.03897  -0.03592   0.12961  -0.00120   0.41619
           d4           0.00004  -0.05471   0.08957   0.00001   0.00010
           r5           0.01861   0.05333  -0.03486   0.04053  -0.03593
           a5           0.03811  -0.03485   0.14533  -0.03679   0.12962
           d5           0.00747   0.06249  -0.10373  -0.05050   0.08849
           r6           0.01860   0.00470  -0.00033   0.00326  -0.00002
           a6           0.03810  -0.00033   0.00161   0.00248   0.01567
           d6          -0.00739  -0.00751   0.00043   0.00330  -0.01188
           r7           0.01356   0.00326   0.00247   0.00254   0.00990
           a7           0.03895  -0.00002   0.01564   0.00990   0.02197
           d7           0.00004   0.00557  -0.01041  -0.00000  -0.00000
           r8           0.01861   0.00438   0.02035   0.00327  -0.00003
           a8           0.03812   0.02035   0.04448   0.00249   0.01583
           d8           0.00747   0.00070  -0.00126  -0.00329   0.01198
                          d4        r5        a5        d5        r6
           d4           0.37896
           r5           0.05468   0.41669
           a5          -0.08955   0.00730   0.44292
           d5          -0.18127   0.00926  -0.00233   0.42840
           r6           0.00557   0.00438   0.02035   0.00070   0.41664
           a6          -0.01043   0.02035   0.04448  -0.00126   0.00730
           d6           0.00737  -0.00071   0.00125   0.00654  -0.00928
           r7          -0.00000   0.00327   0.00248  -0.00329   0.04053
           a7          -0.00000  -0.00003   0.01581   0.01197  -0.03592
           d7           0.00055  -0.00556   0.01050   0.00739  -0.05469
           r8          -0.00556   0.00470  -0.00029   0.00751   0.05335
           a8           0.01051  -0.00029   0.00156  -0.00038  -0.03486
           d8           0.00740   0.00751  -0.00038   0.00011   0.06253
                          a6        d6        r7        a7        d7
           a6           0.44292
           d6           0.00250   0.42854
           r7          -0.03678   0.05050   0.22737
           a7           0.12960  -0.08848  -0.00120   0.41610
           d7           0.08956  -0.18130   0.00004   0.00009   0.37887
           r8          -0.03487  -0.06253   0.04053  -0.03593   0.05468
           a8           0.14535   0.10370  -0.03679   0.12962  -0.08956
           d8          -0.10375  -0.23379  -0.05050   0.08848  -0.18127
                          r8        a8        d8
           r8           0.41664
           a8           0.00730   0.44296
           d8           0.00929  -0.00232   0.42851
 ITU=  1  1  0
     Eigenvalues ---    0.01240   0.11934   0.15736   0.17549   0.17993
     Eigenvalues ---    0.23572   0.25698   0.28553   0.34764   0.37260
     Eigenvalues ---    0.41400   0.44412   0.50099   0.64244   0.66497
     Eigenvalues ---    0.69164   0.74721   0.78852
 RFO step:  Lambda=-1.17148376D-07 EMin= 1.24023981D-02
 Quintic linear search produced a step of -0.02300.
 Variable       Old X    -DE/DX   Delta X   Delta X   Delta X     New X
                                 (Linear)    (Quad)   (Total)
    r2        2.93952  -0.00011  -0.00008  -0.00037  -0.00045   2.93907
    r3        2.51912  -0.00003  -0.00012   0.00007  -0.00005   2.51907
    a3        1.90640   0.00001  -0.00000   0.00008   0.00008   1.90648
    r4        3.34394   0.00002   0.00002   0.00005   0.00007   3.34401
    a4        1.93262   0.00003  -0.00000   0.00018   0.00018   1.93280
    d4        4.17923  -0.00002  -0.00002  -0.00027  -0.00029   4.17895
    r5        2.51906  -0.00003  -0.00011   0.00012   0.00001   2.51907
    a5        1.90660   0.00001  -0.00003  -0.00008  -0.00011   1.90648
    d5        2.07497  -0.00005   0.00000  -0.00027  -0.00027   2.07470
    r6        2.51911  -0.00003  -0.00012   0.00007  -0.00004   2.51907
    a6        1.90639   0.00001  -0.00001   0.00010   0.00009   1.90649
    d6        1.06555   0.00004   0.00014   0.00122   0.00136   1.06691
    r7        3.34387   0.00003   0.00003   0.00011   0.00014   3.34401
    a7        1.93269   0.00003  -0.00001   0.00012   0.00011   1.93280
    d7        5.24458   0.00001   0.00015   0.00112   0.00127   5.24585
    r8        2.51911  -0.00003  -0.00012   0.00008  -0.00004   2.51907
    a8        1.90654   0.00001  -0.00002  -0.00004  -0.00006   1.90648
    d8        3.14031  -0.00000   0.00017   0.00114   0.00131   3.14162
         Item               Value     Threshold  Converged?
 Maximum Force            0.000111     0.000002     NO 
 RMS     Force            0.000036     0.000001     NO 
 Maximum Displacement     0.001359     0.000006     NO 
 RMS     Displacement     0.000560     0.000004     NO 
 Predicted change in Energy=-7.237524D-08
 GradGradGradGradGradGradGradGradGradGradGradGradGradGradGradGradGradGrad

 ---------------------------------------------------------------------------------------------------
                            Z-MATRIX (ANGSTROMS AND DEGREES)
   CD    Cent   Atom    N1       Length/X        N2       Alpha/Y        N3        Beta/Z          J
 ---------------------------------------------------------------------------------------------------
      1      1  C 
      2      2  C        1   1.555287(     1)
      3      3  F        1   1.333035(     2)      2  109.233(     8)
      4      4  Cl       1   1.769573(     3)      2  110.741(     9)      3  239.436(    14)      0
      5      5  F        1   1.333035(     4)      2  109.233(    10)      3  118.872(    15)      0
      6      6  F        2   1.333035(     5)      1  109.234(    11)      3   61.130(    16)      0
      7      7  Cl       2   1.769573(     6)      1  110.741(    12)      3  300.565(    17)      0
      8      8  F        2   1.333036(     7)      1  109.233(    13)      3  180.002(    18)      0
 ---------------------------------------------------------------------------------------------------
                         Z-Matrix orientation:                         
 ---------------------------------------------------------------------
 Center     Atomic      Atomic             Coordinates (Angstroms)
 Number     Number       Type             X           Y           Z
 ---------------------------------------------------------------------
      1          6           0        0.000000    0.000000    0.000000
      2          6           0        0.000000    0.000000    1.555287
      3          9           0        1.258631    0.000000   -0.439124
      4         17           0       -0.841512    1.424957   -0.626693
      5          9           0       -0.607732   -1.102187   -0.439123
      6          9           0        0.607704    1.102200    1.994416
      7         17           0        0.841542   -1.424940    2.181979
      8          9           0       -1.258633   -0.000033    1.994407
 ---------------------------------------------------------------------
                    Distance matrix (angstroms):
                    1          2          3          4          5
     1  C    0.000000
     2  C    1.555287   0.000000
     3  F    1.333035   2.358353   0.000000
     4  Cl   1.769573   2.738555   2.544855   0.000000
     5  F    1.333035   2.358353   2.167516   2.544856   0.000000
     6  F    2.358356   1.333035   2.749667   3.012409   3.501245
     7  Cl   2.738554   1.769573   3.012408   4.340878   3.012432
     8  F    2.358351   1.333036   3.501242   3.012433   2.749634
                    6          7          8
     6  F    0.000000
     7  Cl   2.544856   0.000000
     8  F    2.167517   2.544853   0.000000
 Stoichiometry    C2Cl2F4
 Framework group  C1[X(C2Cl2F4)]
 Deg. of freedom    18
 Full point group                 C1      NOp   1
 Largest Abelian subgroup         C1      NOp   1
 Largest concise Abelian subgroup C1      NOp   1
                         Standard orientation:                         
 ---------------------------------------------------------------------
 Center     Atomic      Atomic             Coordinates (Angstroms)
 Number     Number       Type             X           Y           Z
 ---------------------------------------------------------------------
      1          6           0        0.599883   -0.494843   -0.000003
      2          6           0       -0.599883    0.494843   -0.000003
      3          9           0        0.531356   -1.267998    1.083749
      4         17           0        2.136385    0.382967    0.000013
      5          9           0        0.531369   -1.267981   -1.083768
      6          9           0       -0.531356    1.268005    1.083743
      7         17           0       -2.136385   -0.382967    0.000015
      8          9           0       -0.531370    1.267974   -1.083774
 ---------------------------------------------------------------------
 Rotational constants (GHZ):           2.2207850           1.1523561           1.0364297
 Basis read from rwf:  (5D, 7F)
 There are   208 symmetry adapted cartesian basis functions of A   symmetry.
 There are   192 symmetry adapted basis functions of A   symmetry.
   192 basis functions,   392 primitive gaussians,   208 cartesian basis functions
    41 alpha electrons       41 beta electrons
       nuclear repulsion energy       612.0953534229 Hartrees.
 NAtoms=    8 NActive=    8 NUniq=    8 SFac= 1.00D+00 NAtFMM=   60 NAOKFM=F Big=F
 Integral buffers will be    131072 words long.
 Raffenetti 2 integral format.
 Two-electron integral symmetry is turned on.
 Nuclear repulsion after empirical dispersion term =      612.0927794822 Hartrees.
 One-electron integrals computed using PRISM.
 NBasis=   192 RedAO= T EigKep=  2.46D-04  NBF=   192
 NBsUse=   192 1.00D-06 EigRej= -1.00D+00 NBFU=   192
 Initial guess from the checkpoint file:  "checkpoint.chk"
 B after Tr=    -0.000000    0.000000   -0.000000
         Rot=    1.000000   -0.000014    0.000006    0.000036 Ang=  -0.00 deg.
 Requested convergence on RMS density matrix=1.00D-08 within 128 cycles.
 Requested convergence on MAX density matrix=1.00D-06.
 Requested convergence on             energy=1.00D-06.
 No special actions if energy rises.
 SCF Done:  E(RwB97XD) =  -1395.77082339     A.U. after    7 cycles
            NFock=  7  Conv=0.99D-08     -V/T= 2.0015
 DoSCS=F DFT=T ScalE2(SS,OS)=  1.000000  1.000000
 Range of M.O.s used for correlation:     1   192
 NBasis=   192 NAE=    41 NBE=    41 NFC=     0 NFV=     0
 NROrb=    192 NOA=    41 NOB=    41 NVA=   151 NVB=   151

 **** Warning!!: The largest alpha MO coefficient is  0.17717433D+02

 Symmetrizing basis deriv contribution to polar:
 IMax=3 JMax=2 DiffMx= 0.00D+00
 G2DrvN: will do     9 centers at a time, making    1 passes.
 Calling FoFCou, ICntrl=  3107 FMM=F I1Cent=   0 AccDes= 0.00D+00.
 End of G2Drv F.D. properties file   721 does not exist.
 End of G2Drv F.D. properties file   722 does not exist.
 End of G2Drv F.D. properties file   788 does not exist.
          IDoAtm=11111111
          Differentiating once with respect to electric field.
                with respect to dipole field.
          Differentiating once with respect to nuclear coordinates.
 CalDSu exits because no D1Ps are significant.
          There are    27 degrees of freedom in the 1st order CPHF.  IDoFFX=6 NUNeed=     3.
     24 vectors produced by pass  0 Test12= 2.29D-14 3.70D-09 XBig12= 2.64D+01 2.25D+00.
 AX will form    24 AO Fock derivatives at one time.
     24 vectors produced by pass  1 Test12= 2.29D-14 3.70D-09 XBig12= 3.23D+00 3.32D-01.
     24 vectors produced by pass  2 Test12= 2.29D-14 3.70D-09 XBig12= 3.23D-01 9.23D-02.
     24 vectors produced by pass  3 Test12= 2.29D-14 3.70D-09 XBig12= 9.98D-03 2.26D-02.
     24 vectors produced by pass  4 Test12= 2.29D-14 3.70D-09 XBig12= 9.75D-05 1.97D-03.
     24 vectors produced by pass  5 Test12= 2.29D-14 3.70D-09 XBig12= 9.17D-07 1.79D-04.
     24 vectors produced by pass  6 Test12= 2.29D-14 3.70D-09 XBig12= 1.02D-08 1.57D-05.
     13 vectors produced by pass  7 Test12= 2.29D-14 3.70D-09 XBig12= 6.62D-11 1.32D-06.
      4 vectors produced by pass  8 Test12= 2.29D-14 3.70D-09 XBig12= 5.15D-13 1.52D-07.
      2 vectors produced by pass  9 Test12= 2.29D-14 3.70D-09 XBig12= 3.31D-15 1.49D-08.
 InvSVY:  IOpt=1 It=  1 EMax= 7.11D-15
 Solved reduced A of dimension   187 with    27 vectors.
 Isotropic polarizability for W=    0.000000       57.95 Bohr**3.
 End of Minotr F.D. properties file   721 does not exist.
 End of Minotr F.D. properties file   722 does not exist.
 End of Minotr F.D. properties file   788 does not exist.
 Calling FoFJK, ICntrl=    100127 FMM=F ISym2X=0 I1Cent= 0 IOpClX= 0 NMat=1 NMatS=1 NMatT=0.
 ***** Axes restored to original set *****
 -------------------------------------------------------------------
 Center     Atomic                   Forces (Hartrees/Bohr)
 Number     Number              X              Y              Z
 -------------------------------------------------------------------
      1        6          -0.000009181    0.000016447   -0.000000214
      2        6           0.000008857   -0.000016956    0.000000206
      3        9          -0.000000148    0.000000255   -0.000000039
      4       17          -0.000000113   -0.000000181   -0.000000004
      5        9           0.000000111    0.000000398    0.000000259
      6        9           0.000000115   -0.000000442   -0.000000270
      7       17           0.000000130    0.000000140    0.000000015
      8        9           0.000000229    0.000000339    0.000000048
 -------------------------------------------------------------------
 Cartesian Forces:  Max     0.000016956 RMS     0.000005484
 -----------------------------------------------------------------------------------------------
                       Internal Coordinate Forces (Hartree/Bohr or radian)
  Cent   Atom   N1       Length/X         N2         Alpha/Y        N3         Beta/Z          J
 -----------------------------------------------------------------------------------------------
      1  C 
      2  C        1  -0.000000(     1)
      3  F        1  -0.000000(     2)      2   0.000000(     8)
      4  Cl       1  -0.000000(     3)      2   0.000000(     9)      3  -0.000001(    14)     0
      5  F        1  -0.000000(     4)      2  -0.000000(    10)      3   0.000000(    15)     0
      6  F        2  -0.000000(     5)      1  -0.000000(    11)      3  -0.000001(    16)     0
      7  Cl       2  -0.000000(     6)      1   0.000000(    12)      3   0.000001(    17)     0
      8  F        2  -0.000000(     7)      1   0.000000(    13)      3  -0.000001(    18)     0
 -----------------------------------------------------------------------------------------------
 Internal  Forces:  Max     0.000000807 RMS     0.000000392

 GradGradGradGradGradGradGradGradGradGradGradGradGradGradGradGradGradGrad
 Berny optimization.
 Search for a local minimum.
 Step number   4 out of a maximum of   28
 All quantities printed in internal units (Hartrees-Bohrs-Radians)
 Second derivative matrix not updated -- analytic derivatives used.
 DE= -7.20D-08 DEPred=-7.24D-08 R= 9.95D-01
 Trust test= 9.95D-01 RLast= 2.38D-03 DXMaxT set to 4.61D-01
 The second derivative matrix:
                          r2        r3        a3        r4        a4
           r2           0.26864
           r3           0.01862   0.41672
           a3           0.03813   0.00731   0.44303
           r4           0.01356   0.04053  -0.03679   0.22729
           a4           0.03896  -0.03592   0.12962  -0.00122   0.41612
           d4          -0.00000  -0.05468   0.08957  -0.00000  -0.00000
           r5           0.01862   0.05336  -0.03487   0.04053  -0.03592
           a5           0.03813  -0.03487   0.14538  -0.03679   0.12962
           d5           0.00743   0.06255  -0.10374  -0.05050   0.08848
           r6           0.01862   0.00470  -0.00031   0.00326  -0.00003
           a6           0.03813  -0.00031   0.00159   0.00248   0.01575
           d6          -0.00743  -0.00752   0.00041   0.00329  -0.01193
           r7           0.01356   0.00326   0.00248   0.00253   0.00989
           a7           0.03896  -0.00003   0.01575   0.00989   0.02196
           d7          -0.00000   0.00557  -0.01048   0.00000   0.00000
           r8           0.01862   0.00437   0.02035   0.00326  -0.00003
           a8           0.03813   0.02035   0.04448   0.00248   0.01575
           d8           0.00743   0.00070  -0.00126  -0.00329   0.01193
                          d4        r5        a5        d5        r6
           d4           0.37885
           r5           0.05468   0.41672
           a5          -0.08957   0.00731   0.44302
           d5          -0.18127   0.00931  -0.00242   0.42857
           r6           0.00557   0.00437   0.02035   0.00070   0.41672
           a6          -0.01048   0.02035   0.04448  -0.00126   0.00731
           d6           0.00738  -0.00070   0.00126   0.00655  -0.00931
           r7           0.00000   0.00326   0.00248  -0.00329   0.04053
           a7           0.00000  -0.00003   0.01575   0.01193  -0.03592
           d7           0.00055  -0.00557   0.01047   0.00738  -0.05468
           r8          -0.00557   0.00470  -0.00031   0.00752   0.05336
           a8           0.01047  -0.00031   0.00159  -0.00041  -0.03487
           d8           0.00738   0.00752  -0.00041   0.00013   0.06255
                          a6        d6        r7        a7        d7
           a6           0.44302
           d6           0.00242   0.42856
           r7          -0.03679   0.05050   0.22729
           a7           0.12962  -0.08848  -0.00122   0.41612
           d7           0.08957  -0.18127  -0.00000  -0.00000   0.37885
           r8          -0.03487  -0.06255   0.04053  -0.03592   0.05468
           a8           0.14538   0.10375  -0.03679   0.12962  -0.08957
           d8          -0.10374  -0.23384  -0.05050   0.08848  -0.18127
                          r8        a8        d8
           r8           0.41672
           a8           0.00731   0.44302
           d8           0.00931  -0.00242   0.42857
 ITU=  0  1  1  0
     Eigenvalues ---    0.01240   0.11934   0.15732   0.17550   0.17996
     Eigenvalues ---    0.23593   0.25703   0.28553   0.34768   0.37260
     Eigenvalues ---    0.41408   0.44421   0.50108   0.64243   0.66502
     Eigenvalues ---    0.69171   0.74733   0.78868
 RFO step:  Lambda= 0.00000000D+00 EMin= 1.24049372D-02
 Quintic linear search produced a step of -0.00807.
 Variable       Old X    -DE/DX   Delta X   Delta X   Delta X     New X
                                 (Linear)    (Quad)   (Total)
    r2        2.93907  -0.00000   0.00000  -0.00000   0.00000   2.93907
    r3        2.51907  -0.00000   0.00000  -0.00000  -0.00000   2.51907
    a3        1.90648   0.00000  -0.00000   0.00000  -0.00000   1.90648
    r4        3.34401  -0.00000  -0.00000   0.00000   0.00000   3.34401
    a4        1.93280   0.00000  -0.00000   0.00000  -0.00000   1.93280
    d4        4.17895  -0.00000   0.00000  -0.00000   0.00000   4.17895
    r5        2.51907  -0.00000  -0.00000  -0.00000  -0.00000   2.51907
    a5        1.90648  -0.00000   0.00000  -0.00000   0.00000   1.90648
    d5        2.07470   0.00000   0.00000  -0.00000   0.00000   2.07471
    r6        2.51907  -0.00000   0.00000  -0.00000   0.00000   2.51907
    a6        1.90649  -0.00000  -0.00000  -0.00000  -0.00000   1.90648
    d6        1.06691  -0.00000  -0.00001  -0.00002  -0.00003   1.06689
    r7        3.34401  -0.00000  -0.00000   0.00000   0.00000   3.34401
    a7        1.93280   0.00000  -0.00000   0.00000   0.00000   1.93280
    d7        5.24585   0.00000  -0.00001  -0.00001  -0.00002   5.24583
    r8        2.51907  -0.00000   0.00000  -0.00000  -0.00000   2.51907
    a8        1.90648   0.00000   0.00000   0.00000   0.00000   1.90648
    d8        3.14162  -0.00000  -0.00001  -0.00002  -0.00003   3.14159
         Item               Value     Threshold  Converged?
 Maximum Force            0.000001     0.000002     YES
 RMS     Force            0.000000     0.000001     YES
 Maximum Displacement     0.000027     0.000006     NO 
 RMS     Displacement     0.000011     0.000004     NO 
 Predicted change in Energy=-1.631161D-11
 GradGradGradGradGradGradGradGradGradGradGradGradGradGradGradGradGradGrad

 ---------------------------------------------------------------------------------------------------
                            Z-MATRIX (ANGSTROMS AND DEGREES)
   CD    Cent   Atom    N1       Length/X        N2       Alpha/Y        N3        Beta/Z          J
 ---------------------------------------------------------------------------------------------------
[...]
 .00018277,-0.01028419,-0.01731343,0.00044362,0.00106875,-0.00010771,0.
 00287110,0.00863421,0.00215540,-0.00001271,-0.00013635,-0.00002621,0.0
 0008238,-0.00015126,0.00001689,0.00007547,-0.00018314,0.00049192,-0.00
 445305,-0.00864429,-0.00234045,0.00023244,0.00091503,-0.00093072,-0.01
 364681,0.03251059,-0.01508276,-0.00005575,-0.00012265,0.00009028,-0.00
 013951,0.00017812,-0.00023085,0.00001183,-0.00012499,0.00008566,-0.000
 02231,0.00046499,0.00039011,0.01283862,0.00089700,-0.00074428,0.001578
 10,0.03251467,-0.04953492,0.02555586,-0.00007925,0.00014123,-0.0001465
 9,0.00018113,-0.00034099,0.00038547,-0.00015791,0.00007095,-0.00014510
 ,0.00025979,0.00061776,-0.00038116,-0.03363913,0.04996860,-0.00058420,
 0.00098395,-0.00226215,-0.01420913,0.02408077,-0.00565318,-0.00005787,
 0.00003147,0.00001974,-0.00022781,0.00038824,-0.00017131,-0.00000015,0
 .00006477,0.00001686,-0.00006683,0.00047875,0.00007727,0.01553450,-0.0
 2631774,0.00789496,-0.00126394,0.00072573,0.00160668,0.02337674,-0.000
 94074,-0.01159445,0.00036172,-0.00016826,0.00012300,-0.00005857,-0.000
 08094,-0.00005658,-0.00002936,-0.00015276,-0.00001275,-0.00010934,0.00
 068980,0.00060309,0.00078113,0.00002377,-0.00038844,-0.02305837,0.0008
 7082,-0.00034719,-0.00059509,-0.00066002,-0.00015204,0.00105468,-0.000
 16758,0.00006527,-0.00015353,-0.00011960,0.00014273,0.00003225,0.00003
 970,0.00002978,-0.00013562,0.00031516,-0.00065841,-0.00020674,-0.00018
 187,-0.00017879,0.00028967,-0.00009661,0.00109868,-0.00114325,0.000121
 61,-0.00010082,-0.00895355,0.00166546,0.00215863,0.00012217,-0.0001537
 2,0.00049209,0.00008992,-0.00014015,0.00001539,0.00012670,-0.00005265,
 -0.00002910,-0.00010527,-0.00062597,-0.00026711,0.00014384,-0.00052895
 ,0.00007738,0.00971944,-0.00028562,-0.00234644,0.02233614,0.01083270,0
 .01024795,-0.00547771,0.00930101,0.00115415,0.00649975,-0.00568777,0.0
 1864149,0.02226712,-0.00566926,0.01275832,-0.03155609,0.01091084,0.010
 31645,0.01863170,-0.03155592,0.01249472,-0.00551086,0.00930651,0.00113
 414,-0.00596861,-0.02151952,0.01304885,0.00030434,0.00035068,0.0002823
 1,0.00531920,-0.01868132,0.00487437,0.00419321,0.00116689,-0.00067775,
 0.00109290,0.01672999,-0.00375006,0.01599005,0.00477924,-0.00321846,-0
 .00182610,0.00157379,-0.00131111,-0.01353376,-0.00522477,0.00375438,-0
 .00771289,0.02781081,-0.01406014,-0.00096235,0.00086533,-0.00135086,-0
 .00134082,0.00026273,0.00006381,0.00949228,0.02781028,-0.03833864,0.02
 378453,0.00087139,-0.00192466,0.00228755,0.00293963,-0.00086579,-0.000
 23940,-0.03066670,0.04326443,-0.01559317,0.02637920,-0.00496688,0.0006
 9036,-0.00116008,0.00037855,-0.00076308,0.00019574,0.00008239,0.015776
 96,-0.02670080,0.00597053,-0.01467030,-0.01390101,-0.00998334,0.000190
 60,0.00122359,-0.00108850,0.00153026,0.00067685,-0.00067758,0.00037401
 ,-0.00068441,0.00019849,0.01253368,-0.01673150,0.01361593,-0.00939234,
 0.00041146,-0.00056513,0.00027910,0.00189990,0.00010646,-0.00079291,0.
 00199195,-0.00257734,0.00076633,0.01277749,-0.01100075,-0.01191171,-0.
 01167944,-0.00321979,-0.00050149,0.00235302,-0.00130490,0.00102023,0.0
 0020760,0.00015733,0.00018250,-0.00017160,0.00008272,0.01111749,0.0093
 1729,0.00375533,0.00018916,0.00123209,-0.00109187,-0.01466541,-0.01390
 033,-0.00998222,-0.00018926,-0.00014309,0.00025296,-0.00001003,-0.0000
 2562,-0.00027454,0.00024233,0.00007259,0.00045294,0.01252571,0.0004168
 6,-0.00056984,0.00028280,-0.01673125,0.01359485,-0.00940173,-0.0001806
 5,-0.00001152,0.00016522,-0.00023591,0.00052171,-0.00032720,0.00007515
 ,-0.00008100,-0.00001481,0.01276116,-0.01097723,-0.00050097,0.00236210
 ,-0.00131300,-0.01191412,-0.01169781,-0.00322034,-0.00026728,-0.000141
 11,0.00034967,-0.00009567,0.00012228,-0.00033001,0.00045223,-0.0000152
 6,0.00051253,0.01112177,0.00932430,0.00376727,-0.00097686,0.00088097,-
 0.00135480,-0.00769023,0.02779044,-0.01403379,0.00028852,-0.00018983,-
 0.00006330,-0.00012642,0.00015557,-0.00045599,-0.00001005,-0.00024237,
 -0.00009264,0.00037798,0.00198906,0.00018050,0.00947012,0.00086343,-0.
 00191671,0.00229680,0.02779449,-0.03837258,0.02377945,-0.00039854,0.00
 022164,0.00014130,0.00015868,-0.00030315,0.00076658,-0.00002357,0.0005
 1718,0.00012836,-0.00068205,-0.00258300,-0.00016837,-0.03064640,0.0433
 0012,0.00068171,-0.00115956,0.00037537,-0.01557003,0.02638520,-0.00495
 421,0.00041961,0.00007919,-0.00032687,-0.00045291,0.00076941,-0.000886
 16,-0.00027256,-0.00033019,-0.00033011,0.00019737,0.00076251,0.0000788
 4,0.01576121,-0.02670177,0.00596384,0.00030361,0.00035172,0.00027752,-
 0.00594381,-0.02157128,0.01305222,0.00005638,0.00017779,-0.00020607,0.
 00028568,-0.00040019,0.00042102,-0.00019049,-0.00017951,-0.00026732,0.
 00152953,0.00190557,0.00102353,-0.00133321,0.00293404,-0.00076431,0.00
 529232,0.00115882,-0.00067140,0.00109006,-0.01873606,0.00487051,0.0042
 1214,0.00017852,0.00010268,-0.00040249,-0.00018693,0.00022295,0.000080
 14,-0.00014409,-0.00001531,-0.00014044,0.00068524,0.00010603,0.0002138
 9,0.00026263,-0.00086372,0.00019510,0.01678187,-0.00375173,-0.00181991
 ,0.00157337,-0.00130612,0.01599075,0.00479545,-0.00321684,-0.00020687,
 -0.00040278,0.00051270,-0.00006364,0.00014795,-0.00033158,0.00025379,0
 .00016798,0.00034692,-0.00067641,-0.00079108,0.00015505,0.00005887,-0.
 00024249,0.00007910,-0.01353658,-0.00524841,0.00376077,0.10809108,0.07
 090343,0.02976001,-0.00317025,0.00539391,-0.02712305,0.00416048,0.0023
 0236,-0.00001567,0.10802345,0.00232116,0.00160738,0.00003718,0.0709813
 0,0.02982684,-0.00002581,0.00003714,0.01049660,-0.00320308,0.00539845,
 -0.02714098,-0.08389869,-0.02152195,0.01914318,-0.00222980,-0.00082367
 ,0.00291849,0.08490517,-0.01898028,0.01256061,0.00481512,-0.00103243,0
 .00096830,0.00075095,0.01953089,-0.01394618,0.02054958,0.00541281,0.01
 291936,0.00234037,0.00045794,-0.00330812,-0.02200058,-0.00672146,-0.01
 054672,0.00166559,0.00137743,-0.00376680,-0.00013518,0.00002560,0.0004
 3541,-0.00092705,0.00044332,-0.00011129,-0.00100885,0.00137687,0.00018
 911,0.00635470,0.00003172,-0.00017149,-0.00073708,0.00145671,-0.000627
 82,0.00017171,-0.00268360,0.00190546,-0.00356841,0.00601748,-0.0036302
 9,0.00007988,-0.00012651,0.00103358,-0.00065572,0.00023179,0.00032847,
 0.00385044,-0.00650575,0.00219759,-0.02707236,-0.05033201,-0.01347037,
 -0.00056451,-0.00195660,-0.00206202,0.00175886,-0.00012686,-0.00077485
 ,0.00010210,-0.00012575,0.00011499,0.02563832,-0.05286545,-0.04422639,
 -0.01442885,-0.00174378,-0.00069811,-0.00219471,0.00153133,0.00098140,
 0.00037050,0.00088700,-0.00165421,0.00068953,0.05223587,0.04528539,-0.
 01466819,-0.01536651,0.01291817,-0.00153622,-0.00183456,-0.00330166,0.
 00004842,0.00085454,0.00092014,-0.00009297,0.00018017,0.00032899,0.016
 51569,0.01600919,-0.01054683,-0.00056619,-0.00194793,-0.00206541,-0.02
 706787,-0.05033083,-0.01346937,0.00017380,0.00012443,-0.00009936,0.000
 00492,0.00018074,0.00003248,-0.00003990,-0.00000380,-0.00025877,0.0256
 3080,-0.00173838,-0.00070298,-0.00219063,-0.05286527,-0.04424686,-0.01
 443847,0.00002677,0.00008954,0.00007975,-0.00006259,0.00031637,-0.0002
 6913,-0.00000127,-0.00008568,-0.00025605,0.05221961,0.04530478,-0.0015
 3520,-0.00182527,-0.00331014,-0.01467038,-0.01538452,0.01291746,-0.000
 02241,0.00012613,0.00009560,0.00001099,0.00027986,-0.00007253,-0.00025
 937,-0.00025610,-0.00033887,0.01652015,0.01601662,-0.01053477,-0.00014
 966,0.00004130,0.00043154,0.00168801,0.00135678,-0.00374016,0.00029515
 ,0.00002116,-0.00025277,0.00000537,-0.00001445,-0.00007561,0.00000517,
 -0.00006910,0.00001464,0.00010634,0.00088419,-0.00009571,-0.00103195,0
 .00002328,-0.00016266,-0.00072913,0.00136090,0.00015705,0.00634942,-0.
 00022064,0.00002444,0.00012421,-0.00001132,0.00001604,0.00012279,0.000
 18301,0.00031186,0.00028613,-0.00012381,-0.00165648,0.00018294,-0.0026
 6233,0.00193523,0.00007191,-0.00012704,0.00103216,-0.00354540,0.006023
 04,-0.00361775,0.00022056,-0.00016123,-0.00007002,-0.00007267,0.000125
 53,-0.00011175,0.00003443,-0.00027212,-0.00007261,0.00011397,0.0006857
 4,0.00032511,0.00383424,-0.00650532,0.00218914,-0.00223025,-0.00082263
 ,0.00291378,-0.08387458,-0.02157375,0.01914653,-0.00007743,0.00001977,
 0.00034890,0.00029212,-0.00022236,0.00022195,0.00017235,0.00002793,-0.
 00002260,0.00175812,0.00153695,0.00005192,-0.00091882,0.00145102,-0.00
 065691,0.08487850,-0.00104063,0.00097492,0.00074770,-0.01903480,0.0125
 5689,0.00483428,0.00002056,-0.00005029,0.00010453,0.00002403,0.0000256
 9,-0.00016021,0.00012359,0.00008578,0.00012708,-0.00011839,0.00098132,
 0.00086037,0.00044257,-0.00062597,0.00023116,0.01958308,-0.01394834,0.
 00234637,0.00045748,-0.00330282,0.02055050,0.00542897,0.01292088,0.000
 34805,0.00010416,-0.00033870,-0.00025309,0.00013085,-0.00007483,-0.000
 09850,0.00008255,0.00009270,-0.00077372,0.00037219,0.00091816,-0.00011
 604,0.00016872,0.00032527,-0.02200358,-0.00674491,-0.01054067,0.102352
 14,0.02818299,0.07113177,-0.03277140,0.05551747,-0.03384645,0.00682126
 ,0.00264693,-0.00296753,0.10228445,0.00266675,0.00388676,0.00503481,0.
 02826177,0.07119931,-0.00297711,0.00503516,0.02945684,-0.03280417,0.05
 552342,-0.03386505,-0.11617693,0.02272853,0.05475403,-0.00097615,-0.00
 035151,0.00037812,0.11827872,0.02025226,0.02165866,-0.00678656,-0.0008
 1202,-0.00047827,-0.00007045,-0.02001943,-0.02106799,0.05735096,-0.006
 49714,-0.00030903,-0.00203682,-0.00074144,0.00273590,-0.05562095,0.006
 88651,-0.00169589,0.00158183,-0.00477734,0.00037290,-0.00017498,0.0003
 5907,0.00086657,0.00010865,0.00017326,-0.00010863,-0.00252275,-0.00477
 819,0.00689328,-0.00065500,0.00036526,-0.00057933,-0.00146733,0.001116
 08,0.00011091,-0.00039168,0.00356786,-0.00650282,0.00076146,-0.0013142
 6,-0.00090042,0.00005436,-0.00008308,0.00043540,-0.00024097,-0.0000451
 6,0.00051484,-0.00077217,0.00132166,0.00012312,0.00767874,-0.04805855,
 -0.02050588,-0.00108927,-0.00075580,-0.00011585,-0.00225823,0.00037583
 ,0.00054545,0.00065200,-0.00012771,0.00015741,-0.00548902,-0.04557379,
 -0.10215723,-0.05121556,-0.00029110,-0.00036636,-0.00036647,-0.0039318
 9,-0.00030046,0.00079839,0.00081451,-0.00042970,0.00019266,0.04825004,
 0.10266397,-0.02200797,-0.05334398,-0.00030999,0.00162800,0.00141956,0
 .00274208,-0.00096360,-0.00009501,0.00041386,0.00039912,-0.00009424,0.
 00051517,0.02083309,0.05202138,-0.00169598,-0.00109035,-0.00074736,-0.
 00011926,0.00768342,-0.04805796,-0.02050500,0.00062754,0.00009106,-0.0
 0038945,-0.00006454,0.00027476,-0.00006767,-0.00005623,-0.00005337,-0.
 00045923,-0.00549682,-0.00028573,-0.00037171,-0.00036298,-0.04557442,-
 0.10217911,-0.05122519,0.00094286,0.00005663,-0.00063713,-0.00015156,0
 .00055655,-0.00026979,-0.00005098,-0.00001467,-0.00052258,0.04823452,0
 .10268551,0.00162842,0.00142884,0.00273418,-0.02201066,-0.05336297,-0.
 00031083,0.00074562,0.00003383,-0.00057876,-0.00017799,0.00057430,-0.0
 0022960,-0.00045986,-0.00052313,-0.00085432,0.02083763,0.05202888,-0.0
 0168364,-0.00019018,0.00037537,0.00086389,0.00160564,-0.00479989,0.000
 39938,0.00046533,-0.00001723,-0.00041970,-0.00004342,0.00002521,-0.000
 16335,-0.00006411,-0.00015851,-0.00017492,0.00065586,0.00081154,0.0003
 9707,-0.00254664,0.00035651,-0.00057008,-0.00145917,-0.00479487,0.0068
 6248,-0.00066117,-0.00044167,0.00002512,0.00043169,0.00002812,-0.00007
 612,0.00027100,0.00027693,0.00055194,0.00058028,-0.00012576,-0.0004325
 5,-0.00009104,0.00359062,-0.00647465,0.00004603,-0.00008354,0.00043407
 ,0.00078488,-0.00130949,-0.00088723,0.00026960,-0.00007402,-0.00022693
 ,-0.00016021,0.00027372,-0.00022732,-0.00006577,-0.00027301,-0.0002294
 7,0.00015642,0.00018878,0.00051137,-0.00078856,0.00132291,0.00011333,-
 0.00097650,-0.00035058,0.00037325,-0.11615437,0.02267758,0.05475806,-0
 .00006891,-0.00004373,0.00067914,0.00046231,-0.00044348,0.00027093,0.0
 0062615,0.00094412,0.00074550,-0.00225887,-0.00392623,-0.00096024,0.00
 011686,0.00111023,-0.00024225,0.11825333,-0.00082081,-0.00047146,-0.00
 007301,0.02019846,0.02165453,-0.00676796,-0.00004297,-0.00000459,0.000
 15079,-0.00001412,0.00002655,-0.00007304,0.00009025,0.00005252,0.00003
 460,0.00038411,-0.00030066,-0.00008870,0.00017299,0.00011308,-0.000045
 59,-0.01996790,-0.02106997,-0.00203040,-0.00074254,0.00274080,0.057351
 94,-0.00648080,-0.00030710,0.00067815,0.00015085,-0.00085397,-0.000419
 59,0.00043856,-0.00023175,-0.00038860,-0.00063425,-0.00058135,0.000546
 57,0.00080001,0.00041160,-0.00011367,-0.00039473,0.00051144,-0.0556243
 9,0.00686290,-0.00168967,0.11516515,0.03397423,0.07755644,-0.03669356,
 0.06215818,0.00428870,-0.00089517,0.00002588,-0.00140203,0.11509382,0.
 00004519,-0.00093835,0.00238387,0.03405312,0.07762295,-0.00141158,0.00
 238421,0.00381489,-0.03672515,0.06216357,0.00426910,-0.12200723,0.0211
 6065,0.05847776,-0.00025958,0.00018628,0.00071606,0.12319727,0.0188627
 7,0.02173620,-0.00733781,0.00069299,0.00122707,-0.00059772,-0.01990748
 ,-0.02266882,0.05657103,-0.00727801,-0.00152016,0.00223737,-0.00049024
 ,-0.00176151,-0.05841631,0.00781603,0.00234142,0.00176019,-0.00430371,
 -0.00019577,-0.00012437,0.00033156,0.00074745,-0.00027860,0.00016612,0
 .00007615,-0.00204756,-0.00430405,0.00654913,0.00030783,0.00033772,-0.
 00049827,-0.00126552,0.00110978,0.00000909,-0.00051139,0.00325220,-0.0
 0567824,0.00084295,-0.00145241,-0.00177172,0.00005896,-0.00009112,0.00
 023271,-0.00046353,-0.00008319,0.00058177,-0.00071723,0.00122938,0.000
 15490,0.00512841,-0.05125559,-0.02182097,0.00124941,-0.00014516,0.0001
 8260,-0.00161075,0.00047166,0.00069318,0.00047777,-0.00025237,0.000298
 01,-0.00547519,-0.04894991,-0.10535848,-0.05474216,-0.00064788,-0.0002
 8334,-0.00091711,-0.00302970,-0.00020326,0.00062665,0.00069096,-0.0007
 4645,0.00036901,0.05106529,0.10596824,-0.02094726,-0.05303762,-0.00152
 149,-0.00065580,-0.00220204,-0.00175536,-0.00088454,-0.00030721,0.0000
 9490,0.00041460,-0.00031410,0.00058225,0.02136886,0.05491794,0.0023420
 0,0.00124778,-0.00013646,0.00017934,0.00513304,-0.05125476,-0.02181966
 ,0.00028808,-0.00021139,-0.00081191,-0.00005550,0.00015418,0.00008055,
 -0.00000118,0.00016934,0.00000750,-0.00548257,-0.00064262,-0.00028837,
 -0.00091341,-0.04894960,-0.10537865,-0.05475066,0.00080991,-0.00004271
 ,-0.00023532,-0.00010269,0.00030945,-0.00007691,0.00017177,0.00036475,
 0.00005875,0.05104994,0.10598151,-0.00065540,-0.00219269,-0.00176318,-
 0.02094962,-0.05305565,-0.00152208,0.00059763,0.00059768,0.00012141,0.
 00009610,0.00027983,0.00016555,0.00000672,0.00005827,-0.00002667,0.021
 37311,0.05492484,0.00235395,-0.00013901,0.00034776,0.00074402,0.001783
 24,-0.00432534,-0.00016956,0.00024731,-0.00001264,-0.00029434,0.000022
 84,-0.00002796,-0.00012995,-0.00005527,-0.00010914,0.00009914,0.000481
 85,0.00068731,0.00041254,-0.00207141,0.00032951,-0.00049003,-0.0012562
 9,-0.00432041,0.00651712,0.00030225,-0.00026794,0.00000469,0.00004932,
 -0.00002501,0.00004865,0.00021480,0.00015661,0.00030497,0.00028599,-0.
 00025094,-0.00074264,-0.00031140,0.00327469,-0.00565443,0.00005056,-0.
 00009060,0.00022955,0.00086596,-0.00144665,-0.00175927,0.00002896,-0.0
 0011079,0.00016857,-0.00012708,0.00021762,-0.00010944,0.00008263,-0.00
 007981,0.00016553,0.00029691,0.00036461,0.00057836,-0.00073382,0.00122
 989,0.00014763,-0.00026013,0.00018724,0.00071121,-0.12198038,0.0211091
 0,0.05847984,0.00042353,-0.00006201,-0.00005516,0.00024459,-0.00026960
 ,0.00003031,0.00028683,0.00081103,0.00059750,-0.00161148,-0.00302402,-
 0.00088109,-0.00026990,0.00110354,-0.00046414,0.12316694,0.00068488,0.
 00123345,-0.00060022,0.01880817,0.02173148,-0.00731902,-0.00006149,-0.
 00006225,0.00002296,-0.00000953,0.00000611,-0.00010969,-0.00021221,-0.
 00004642,0.00059829,0.00048009,-0.00020334,-0.00030088,0.00016536,0.00
 001128,-0.00008424,-0.01985527,-0.02267030,0.00224326,-0.00049106,-0.0
 0175658,0.05657031,-0.00726174,-0.00151847,-0.00005602,0.00002300,-0.0
 0002638,-0.00029416,0.00005622,0.00016357,-0.00081103,-0.00023279,0.00
 011886,0.00069415,0.00062810,0.00009268,0.00007195,-0.00051452,0.00057
 866,-0.05841846,0.00779279,0.00234768,0.01509487,0.03128072,-0.0195435
 3,0.00944005,-0.01596055,0.16511247,0.03911108,0.00158718,-0.00601756,
 0.01502438,0.00160663,0.03734646,0.01020075,0.03135889,-0.01947533,-0.
 00602758,0.01020059,-0.22161763,0.00940772,-0.01595440,0.16509257,-0.0
 4592699,-0.00499831,-0.00975299,0.00051848,-0.00130840,-0.00158394,0.0
 4327072,-0.00418860,0.00797852,0.00082730,-0.00018747,-0.00052341,0.00
 004309,0.00409236,-0.00868173,-0.00557886,0.00012074,0.02812391,-0.002
 56974,0.00057419,-0.00209589,0.00870314,-0.00120144,-0.02354644,0.0011
 2912,-0.00216456,0.00328190,-0.00050236,-0.00017261,-0.00006141,0.0003
 9515,-0.00039907,-0.00056575,-0.00142767,-0.00216514,0.00355896,-0.005
 58107,-0.00016637,-0.00032019,0.00010409,-0.00033224,0.00023874,0.0009
 5973,0.00327456,-0.00508511,0.00120095,-0.00205883,0.00520447,0.000221
 46,-0.00036623,-0.00075372,0.00001808,-0.00007921,-0.00069063,-0.00188
 893,0.00321329,-0.00322839,-0.00849150,-0.02484735,0.00397474,-0.00091
 585,0.00059712,0.00073205,0.00189930,0.00065841,-0.00035207,-0.0000377
 1,-0.00016214,0.00006195,0.00691223,-0.02564863,-0.02941606,0.00895024
 ,-0.00051979,0.00090942,0.00140647,0.00150943,0.00070113,-0.00005129,-
 0.00009591,0.00067546,-0.00005080,0.02416501,0.02763890,0.00258253,0.0
 0495932,0.02812249,0.00073270,0.00252124,-0.00208975,0.00021361,0.0002
 8060,-0.00172060,-0.00056364,0.00095842,-0.00069014,-0.00314380,-0.008
 21276,-0.02354617,-0.00091737,0.00060600,0.00072840,-0.00848707,-0.024
 84655,0.00397529,0.00102950,-0.00000245,-0.00062554,-0.00014873,0.0002
 9248,-0.00020416,-0.00024635,-0.00070525,-0.00044530,0.00690509,-0.000
 51405,0.00090423,0.00141020,-0.02564934,-0.02943683,0.00894076,0.00158
 201,0.00015763,-0.00058092,-0.00028161,0.00076658,-0.00043085,-0.00070
 264,-0.00142444,-0.00102958,0.02414964,0.02765610,0.00073337,0.0025307
 0,-0.00209797,0.00258015,0.00494070,0.02812181,0.00081029,0.00026791,-
 0.00011136,-0.00018991,0.00024777,-0.00018804,-0.00044620,-0.00102992,
 0.00022600,-0.00313879,-0.00820534,-0.02353357,-0.00051752,-0.00015621
 ,-0.00006609,0.00115205,-0.00218485,0.00330788,0.00055935,-0.00009743,
 -0.00012754,0.00003505,-0.00006959,0.00011282,-0.00014814,-0.00028819,
 -0.00018611,-0.00003360,-0.00009909,-0.00056582,-0.00144934,-0.0001747
 3,-0.00031198,0.00011322,-0.00218043,0.00352577,-0.00558652,-0.0006698
 8,0.00005697,0.00028454,-0.00006643,0.00010650,-0.00019620,0.00029479,
 0.00076200,0.00025393,-0.00016052,0.00067601,0.00096140,0.00329433,-0.
 00505592,0.00021274,-0.00036556,-0.00075691,0.00122401,-0.00205337,0.0
 0521727,0.00047634,-0.00003238,-0.00018507,0.00011572,-0.00019347,0.00
 053573,-0.00020205,-0.00043395,-0.00018753,0.00006107,-0.00005475,-0.0
 0069402,-0.00190439,0.00321280,-0.00323584,0.00051831,-0.00130747,-0.0
 0158845,-0.04590070,-0.00505023,-0.00975001,-0.00174549,0.00012425,0.0
 0111637,0.00055622,-0.00067161,0.00047779,0.00102803,0.00158333,0.0008
 1001,0.00189856,0.00151509,0.00021689,0.00040189,-0.00033708,0.0000166
 2,0.04324320,-0.00019620,-0.00051660,0.00003990,-0.00424267,0.00797410
 ,0.00084593,0.00012504,0.00007216,-0.00010555,-0.00009442,0.00005821,-
 0.00003113,-0.00000321,0.00015362,0.00026882,0.00066665,0.00070076,0.0
 0028679,-0.00039891,0.00024034,-0.00007941,0.00414373,-0.00868257,-0.0
 0256320,0.00057358,-0.00209084,-0.00557874,0.00013712,0.02812534,0.001
 11547,-0.00010588,0.00022610,-0.00012801,0.00029129,-0.00019014,-0.000
 62462,-0.00057799,-0.00011429,-0.00035098,-0.00004951,-0.00172281,-0.0
 0057070,0.00095674,-0.00069393,0.00870078,-0.00122535,-0.02353941\\@
 The archive entry for this job was punched.


 A SLIP OF THE FOOT YOU MAY SOON RECOVER, BUT A SLIP OF THE TONGUE
 YOU MAY NEVER GET OVER. -- BEN FRANKLIN
 Job cpu time:       0 days 12 hours 38 minutes 58.7 seconds.
 Elapsed time:       0 days  3 hours  9 minutes 57.1 seconds.
 File lengths (MBytes):  RWF=     87 Int=      0 D2E=      0 Chk=     44 Scr=      1
 Normal termination of Gaussian 16 at Wed Sep 16 06:18:01 2020.
