 Entering Gaussian System, Link 0=g16
 Input=CFC-11.gjf
 Output=CFC-11.log
 Initial command:
 /apps/gaussian/g16c01/g16/l1.exe "/jobfs/9051554.gadi-pbs/Gau-647763.inp" -scrdir="/jobfs/9051554.gadi-pbs/"
 Entering Link 1 = /apps/gaussian/g16c01/g16/l1.exe PID=    647764.
  
 Copyright (c) 1988-2019, Gaussian, Inc.  All Rights Reserved.
  
 This is part of the Gaussian(R) 16 program.  It is based on
 the Gaussian(R) 09 system (copyright 2009, Gaussian, Inc.),
 the Gaussian(R) 03 system (copyright 2003, Gaussian, Inc.),
 the Gaussian(R) 98 system (copyright 1998, Gaussian, Inc.),
 the Gaussian(R) 94 system (copyright 1995, Gaussian, Inc.),
 the Gaussian 92(TM) system (copyright 1992, Gaussian, Inc.),
 the Gaussian 90(TM) system (copyright 1990, Gaussian, Inc.),
 the Gaussian 88(TM) system (copyright 1988, Gaussian, Inc.),
 the Gaussian 86(TM) system (copyright 1986, Carnegie Mellon
 University), and the Gaussian 82(TM) system (copyright 1983,
 Carnegie Mellon University). Gaussian is a federally registered
 trademark of Gaussian, Inc.
  
 This software contains proprietary and confidential information,
 including trade secrets, belonging to Gaussian, Inc.
  
 This software is provided under written license and may be
 used, copied, transmitted, or stored only in accord with that
 written license.
  
 The following legend is applicable only to US Government
 contracts under FAR:
  
                    RESTRICTED RIGHTS LEGEND
  
 Use, reproduction and disclosure by the US Government is
 subject to restrictions as set forth in subparagraphs (a)
 and (c) of the Commercial Computer Software - Restricted
 Rights clause in FAR 52.227-19.
  
 Gaussian, Inc.
 340 Quinnipiac St., Bldg. 40, Wallingford CT 06492
  
  
 ---------------------------------------------------------------
 Warning -- This program may not be used in any manner that
 competes with the business of Gaussian, Inc. or will provide
 assistance to any competitor of Gaussian, Inc.  The licensee
 of this program is prohibited from giving any competitor of
 Gaussian, Inc. access to this program.  By using this program,
 the user acknowledges that Gaussian, Inc. is engaged in the
 business of creating and licensing software in the field of
 computational chemistry and represents and warrants to the
 licensee that it is not a competitor of Gaussian, Inc. and that
 it will not use this program in any manner prohibited above.
 ---------------------------------------------------------------
  

 Cite this work as:
 Gaussian 16, Revision C.01,
 M. J. Frisch, G. W. Trucks, H. B. Schlegel, G. E. Scuseria, 
 M. A. Robb, J. R. Cheeseman, G. Scalmani, V. Barone, 
 G. A. Petersson, H. Nakatsuji, X. Li, M. Caricato, A. V. Marenich, 
 J. Bloino, B. G. Janesko, R. Gomperts, B. Mennucci, H. P. Hratchian, 
 J. V. Ortiz, A. F. Izmaylov, J. L. Sonnenberg, D. Williams-Young, 
 F. Ding, F. Lipparini, F. Egidi, J. Goings, B. Peng, A. Petrone, 
 T. Henderson, D. Ranasinghe, V. G. Zakrzewski, J. Gao, N. Rega, 
 G. Zheng, W. Liang, M. Hada, M. Ehara, K. Toyota, R. Fukuda, 
 J. Hasegawa, M. Ishida, T. Nakajima, Y. Honda, O. Kitao, H. Nakai, 
 T. Vreven, K. Throssell, J. A. Montgomery, Jr., J. E. Peralta, 
 F. Ogliaro, M. J. Bearpark, J. J. Heyd, E. N. Brothers, K. N. Kudin, 
 V. N. Staroverov, T. A. Keith, R. Kobayashi, J. Normand, 
 K. Raghavachari, A. P. Rendell, J. C. Burant, S. S. Iyengar, 
 J. Tomasi, M. Cossi, J. M. Millam, M. Klene, C. Adamo, R. Cammi, 
 J. W. Ochterski, R. L. Martin, K. Morokuma, O. Farkas, 
 J. B. Foresman, and D. J. Fox, Gaussian, Inc., Wallingford CT, 2019.
 
 ******************************************
 Gaussian 16:  ES64L-G16RevC.01  3-Jul-2019
                27-Jul-2020 
 ******************************************
 %NprocShared=4
 Will use up to    4 processors via shared memory.
 %chk=checkpoint.chk
 ----------------------------------------------------------------------
 # wB97xD/Gen Freq=(anharmonic,ReadAnharm) Opt=(VeryTight,ZMatrix,CalcA
 ll) Int=UltraFine
 ----------------------------------------------------------------------
 1/7=1,10=4,18=40,26=4,38=1,80=1/1,3;
 2/12=2,17=6,18=5,29=3,40=1/2;
 3/5=7,11=2,25=1,30=1,71=2,74=-58,75=-5,140=1/1,2,3;
 4//1;
 5/5=2,38=5/2;
 8/6=4,10=90,11=11/1;
 11/6=1,8=1,9=11,15=111,16=1/1,2,10;
 10/6=1/2;
 6/7=2,8=2,9=2,10=2,18=1,28=1/1;
 7/10=1,25=1/1,2,3,16;
 1/7=1,10=4,18=40,26=4,80=1/3(3);
 2/29=3/2;
 7/8=1,9=1,25=1,44=-1,71=2,72=1/16;
 99//99;
 2/29=3/2;
 3/5=7,6=1,11=2,25=1,30=1,71=2,74=-58,75=-5,82=7,140=1/1,2,3;
 4/5=5,16=3,69=1/1;
 5/5=2,38=5/2;
 8/6=4,10=90,11=11/1;
 11/6=1,8=1,9=11,15=111,16=1/1,2,10;
 10/6=1/2;
 7/10=1,25=1/1,2,3,16;
 1/7=1,10=4,18=40,26=4,80=1/3(-8);
 2/29=3/2;
 6/7=2,8=2,9=2,10=2,18=1,19=2,28=1/1;
 7/8=1,9=1,25=1,44=-1,71=1,72=1/16;
 99//99;
 -------------------------------------
 CFC-11 - CCl3F ANHARMONIC FREQUENCIES
 -------------------------------------
 Symbolic Z-matrix:
 Charge =  0 Multiplicity = 1
 C
 F                    1    r2
 Cl                   1    r3       2    a3
 Cl                   1    r4       2    a4       3    d4       0
 Cl                   1    r5       2    a5       3    d5       0
       Variables:
  r2                    1.3604                   
  r3                    1.7749                   
  a3                  108.75                     
  r4                    1.7749                   
  a4                  108.75                     
  d4                  240.                       
  r5                    1.7749                   
  a5                  108.75                     
  d5                  120.                       
 

 GradGradGradGradGradGradGradGradGradGradGradGradGradGradGradGradGradGrad
 Berny optimization.
 Initialization pass.
                       ----------------------------
                       !    Initial Parameters    !
                       ! (Angstroms and Degrees)  !
 ----------------------                            ----------------------
 !      Name          Value   Derivative information (Atomic Units)     !
 ------------------------------------------------------------------------
 !       r2          1.3604   calculate D2E/DX2 analytically            !
 !       r3          1.7749   calculate D2E/DX2 analytically            !
 !       a3        108.75     calculate D2E/DX2 analytically            !
 !       r4          1.7749   calculate D2E/DX2 analytically            !
 !       a4        108.75     calculate D2E/DX2 analytically            !
 !       d4        240.0      calculate D2E/DX2 analytically            !
 !       r5          1.7749   calculate D2E/DX2 analytically            !
 !       a5        108.75     calculate D2E/DX2 analytically            !
 !       d5        120.0      calculate D2E/DX2 analytically            !
 ------------------------------------------------------------------------
 Trust Radius=3.00D-01 FncErr=1.00D-07 GrdErr=1.00D-06 EigMax=2.50D+02 EigMin=1.00D-04
 Number of steps in this run=     20 maximum allowed number of steps=    100.
 GradGradGradGradGradGradGradGradGradGradGradGradGradGradGradGradGradGrad

 ---------------------------------------------------------------------------------------------------
                            Z-MATRIX (ANGSTROMS AND DEGREES)
   CD    Cent   Atom    N1       Length/X        N2       Alpha/Y        N3        Beta/Z          J
 ---------------------------------------------------------------------------------------------------
      1      1  C 
      2      2  F        1   1.360400(     1)
      3      3  Cl       1   1.774900(     2)      2  108.750(     5)
      4      4  Cl       1   1.774900(     3)      2  108.750(     6)      3  240.000(     8)      0
      5      5  Cl       1   1.774900(     4)      2  108.750(     7)      3  120.000(     9)      0
 ---------------------------------------------------------------------------------------------------
                         Z-Matrix orientation:                         
 ---------------------------------------------------------------------
 Center     Atomic      Atomic             Coordinates (Angstroms)
 Number     Number       Type             X           Y           Z
 ---------------------------------------------------------------------
      1          6           0        0.000000    0.000000    0.000000
      2          9           0        0.000000    0.000000    1.360400
      3         17           0        1.680706    0.000000   -0.570523
      4         17           0       -0.840353    1.455534   -0.570523
      5         17           0       -0.840353   -1.455534   -0.570523
 ---------------------------------------------------------------------
                    Distance matrix (angstroms):
                    1          2          3          4          5
     1  C    0.000000
     2  F    1.360400   0.000000
     3  Cl   1.774900   2.559929   0.000000
     4  Cl   1.774900   2.559929   2.911069   0.000000
     5  Cl   1.774900   2.559929   2.911069   2.911069   0.000000
 Stoichiometry    CCl3F
 Framework group  C3V[C3(CF),3SGV(Cl)]
 Deg. of freedom     3
 Full point group                 C3V     NOp   6
 Largest Abelian subgroup         CS      NOp   2
 Largest concise Abelian subgroup CS      NOp   2
                         Standard orientation:                         
 ---------------------------------------------------------------------
 Center     Atomic      Atomic             Coordinates (Angstroms)
 Number     Number       Type             X           Y           Z
 ---------------------------------------------------------------------
      1          6           0        0.000000    0.000000    0.255350
      2          9           0        0.000000    0.000000    1.615750
      3         17           0        0.000000    1.680706   -0.315173
      4         17           0       -1.455534   -0.840353   -0.315173
      5         17           0        1.455534   -0.840353   -0.315173
 ---------------------------------------------------------------------
 Rotational constants (GHZ):           2.4184698           2.4184698           1.7054183
 General basis read from cards:  (5D, 7F)
 There are    86 symmetry adapted cartesian basis functions of A'  symmetry.
 There are    51 symmetry adapted cartesian basis functions of A"  symmetry.
 There are    78 symmetry adapted basis functions of A'  symmetry.
 There are    49 symmetry adapted basis functions of A"  symmetry.
   127 basis functions,   315 primitive gaussians,   137 cartesian basis functions
    33 alpha electrons       33 beta electrons
       nuclear repulsion energy       364.7242255392 Hartrees.
 NAtoms=    5 NActive=    5 NUniq=    3 SFac= 2.78D+00 NAtFMM=   60 NAOKFM=F Big=F
 Integral buffers will be    131072 words long.
 Raffenetti 2 integral format.
 Two-electron integral symmetry is turned on.
 Nuclear repulsion after empirical dispersion term =      364.7235758439 Hartrees.
 One-electron integrals computed using PRISM.
 NBasis=   127 RedAO= T EigKep=  1.73D-03  NBF=    78    49
 NBsUse=   127 1.00D-06 EigRej= -1.00D+00 NBFU=    78    49
 ExpMin= 3.35D-02 ExpMax= 6.35D+04 ExpMxC= 2.17D+03 IAcc=3 IRadAn=         5 AccDes= 0.00D+00
 Harris functional with IExCor= 4639 and IRadAn=       5 diagonalized for initial guess.
 HarFok:  IExCor= 4639 AccDes= 0.00D+00 IRadAn=         5 IDoV= 1 UseB2=F ITyADJ=14
 ICtDFT=  3500011 ScaDFX=  1.000000  1.000000  1.000000  1.000000
 FoFCou: FMM=F IPFlag=           0 FMFlag=      100000 FMFlg1=           0
         NFxFlg=           0 DoJE=T BraDBF=F KetDBF=T FulRan=T
         wScrn=  0.000000 ICntrl=       500 IOpCl=  0 I1Cent=   200000004 NGrid=           0
         NMat0=    1 NMatS0=      1 NMatT0=    0 NMatD0=    1 NMtDS0=    0 NMtDT0=    0
 Petite list used in FoFCou.
 Initial guess orbital symmetries:
       Occupied  (E) (E) (A1) (A1) (A1) (E) (E) (A1) (E) (E) (A1)
                 (E) (E) (A1) (E) (E) (A2) (A1) (A1) (E) (E) (A1)
                 (A1) (E) (E) (E) (E) (A1) (E) (E) (E) (E) (A2)
       Virtual   (A1) (E) (E) (A1) (E) (E) (A1) (E) (E) (A1) (A2)
                 (E) (E) (A1) (E) (E) (A1) (E) (E) (A1) (E) (E)
                 (A1) (E) (E) (A1) (E) (E) (E) (E) (A2) (A1) (E)
                 (E) (E) (E) (A2) (A1) (A1) (E) (E) (A1) (E) (E)
                 (A1) (E) (E) (E) (E) (E) (E) (A1) (A1) (A2) (E)
                 (E) (E) (E) (A1) (E) (E) (A1) (E) (E) (A2) (A2)
                 (E) (E) (E) (E) (A1) (E) (E) (A1) (E) (E) (A1)
                 (E) (E) (E) (E) (A1) (A1) (E) (E) (A1) (E) (E)
                 (A1) (E) (E) (E) (E) (A1)
 The electronic state of the initial guess is 1-A1.
 Keep R1 ints in memory in symmetry-blocked form, NReq=99249000.
 Requested convergence on RMS density matrix=1.00D-08 within 128 cycles.
 Requested convergence on MAX density matrix=1.00D-06.
 Requested convergence on             energy=1.00D-06.
 No special actions if energy rises.
 SCF Done:  E(RwB97XD) =  -1518.46241679     A.U. after   12 cycles
            NFock= 12  Conv=0.84D-08     -V/T= 2.0010
 DoSCS=F DFT=T ScalE2(SS,OS)=  1.000000  1.000000
 Range of M.O.s used for correlation:     1   127
 NBasis=   127 NAE=    33 NBE=    33 NFC=     0 NFV=     0
 NROrb=    127 NOA=    33 NOB=    33 NVA=    94 NVB=    94

 **** Warning!!: The largest alpha MO coefficient is  0.12107075D+02

 Symmetrizing basis deriv contribution to polar:
 IMax=3 JMax=2 DiffMx= 0.00D+00
 G2DrvN: will do     6 centers at a time, making    1 passes.
 Calling FoFCou, ICntrl=  3107 FMM=F I1Cent=   0 AccDes= 0.00D+00.
 End of G2Drv F.D. properties file   721 does not exist.
 End of G2Drv F.D. properties file   722 does not exist.
 End of G2Drv F.D. properties file   788 does not exist.
          IDoAtm=11111
          Differentiating once with respect to electric field.
                with respect to dipole field.
          Differentiating once with respect to nuclear coordinates.
 Keep R1 ints in memory in symmetry-blocked form, NReq=99251535.
          There are    12 degrees of freedom in the 1st order CPHF.  IDoFFX=4 NUNeed=    12.
     12 vectors produced by pass  0 Test12= 2.58D-14 8.33D-09 XBig12= 2.68D+01 1.62D+00.
 AX will form    12 AO Fock derivatives at one time.
     12 vectors produced by pass  1 Test12= 2.58D-14 8.33D-09 XBig12= 3.15D+00 4.94D-01.
     12 vectors produced by pass  2 Test12= 2.58D-14 8.33D-09 XBig12= 4.66D-01 1.51D-01.
     12 vectors produced by pass  3 Test12= 2.58D-14 8.33D-09 XBig12= 3.36D-02 4.51D-02.
     12 vectors produced by pass  4 Test12= 2.58D-14 8.33D-09 XBig12= 3.58D-04 5.34D-03.
     12 vectors produced by pass  5 Test12= 2.58D-14 8.33D-09 XBig12= 3.74D-06 3.67D-04.
     12 vectors produced by pass  6 Test12= 2.58D-14 8.33D-09 XBig12= 1.10D-07 6.61D-05.
     11 vectors produced by pass  7 Test12= 2.58D-14 8.33D-09 XBig12= 9.50D-10 6.25D-06.
      4 vectors produced by pass  8 Test12= 2.58D-14 8.33D-09 XBig12= 6.05D-12 5.60D-07.
      3 vectors produced by pass  9 Test12= 2.58D-14 8.33D-09 XBig12= 3.97D-14 4.04D-08.
 InvSVY:  IOpt=1 It=  1 EMax= 8.88D-16
 Solved reduced A of dimension   102 with    12 vectors.
 Isotropic polarizability for W=    0.000000       57.47 Bohr**3.
 End of Minotr F.D. properties file   721 does not exist.
 End of Minotr F.D. properties file   722 does not exist.
 End of Minotr F.D. properties file   788 does not exist.

 **********************************************************************

            Population analysis using the SCF Density.

 **********************************************************************

 Orbital symmetries:
       Occupied  (E) (E) (A1) (A1) (A1) (E) (E) (A1) (E) (E) (A1)
                 (E) (E) (A1) (E) (E) (A2) (A1) (A1) (E) (E) (A1)
                 (A1) (E) (E) (E) (E) (A1) (E) (E) (E) (E) (A2)
       Virtual   (A1) (E) (E) (A1) (E) (E) (A1) (A1) (E) (E) (E)
                 (E) (A1) (A2) (E) (E) (A1) (A1) (E) (E) (E) (E)
                 (A1) (E) (E) (A1) (E) (E) (E) (E) (A1) (A2) (E)
                 (E) (A1) (A2) (E) (E) (E) (E) (A1) (A1) (E) (E)
                 (A1) (E) (E) (E) (E) (E) (E) (A1) (A2) (A1) (E)
                 (E) (E) (E) (A1) (E) (E) (A1) (A2) (E) (E) (A2)
                 (E) (E) (E) (E) (A1) (E) (E) (A1) (E) (E) (A1)
                 (E) (E) (E) (E) (A1) (A1) (E) (E) (A1) (E) (E)
                 (A1) (E) (E) (E) (E) (A1)
 The electronic state is 1-A1.
 Alpha  occ. eigenvalues -- -101.72102-101.72102-101.72102 -24.87317 -10.56937
 Alpha  occ. eigenvalues --   -9.62125  -9.62125  -9.62122  -7.36915  -7.36915
 Alpha  occ. eigenvalues --   -7.36915  -7.35753  -7.35753  -7.35753  -7.35742
 Alpha  occ. eigenvalues --   -7.35742  -7.35742  -1.39729  -1.05976  -0.96759
 Alpha  occ. eigenvalues --   -0.96759  -0.77376  -0.65856  -0.64299  -0.64299
 Alpha  occ. eigenvalues --   -0.52933  -0.52933  -0.46815  -0.45575  -0.45575
 Alpha  occ. eigenvalues --   -0.42443  -0.42443  -0.40966
 Alpha virt. eigenvalues --    0.00827   0.05698   0.05698   0.05975   0.08381
 Alpha virt. eigenvalues --    0.08381   0.08979   0.11834   0.12430   0.12430
 Alpha virt. eigenvalues --    0.13789   0.13789   0.15294   0.16466   0.16832
 Alpha virt. eigenvalues --    0.16832   0.16977   0.24336   0.24831   0.24831
 Alpha virt. eigenvalues --    0.26732   0.26732   0.29106   0.29261   0.29261
 Alpha virt. eigenvalues --    0.30639   0.31935   0.31935   0.36023   0.36023
 Alpha virt. eigenvalues --    0.36264   0.36608   0.37961   0.37961   0.42768
 Alpha virt. eigenvalues --    0.43227   0.43703   0.43703   0.46837   0.46837
 Alpha virt. eigenvalues --    0.46980   0.53024   0.53437   0.53437   0.70227
 Alpha virt. eigenvalues --    0.72003   0.72003   0.77843   0.77843   0.81183
 Alpha virt. eigenvalues --    0.81183   0.81725   0.91597   0.92119   0.95795
 Alpha virt. eigenvalues --    0.95795   0.98965   0.98965   0.99178   1.00141
 Alpha virt. eigenvalues --    1.00141   1.00522   1.00968   1.00991   1.00991
 Alpha virt. eigenvalues --    1.02847   1.03745   1.03745   1.05762   1.05762
 Alpha virt. eigenvalues --    1.10722   1.13440   1.13440   1.17643   1.28448
 Alpha virt. eigenvalues --    1.28448   1.35553   1.51826   1.51826   1.59533
 Alpha virt. eigenvalues --    1.59533   1.80142   1.91495   2.03351   2.03351
 Alpha virt. eigenvalues --    2.16851   2.27561   2.27561   2.81726   2.89238
 Alpha virt. eigenvalues --    2.89238   2.98440   2.98440   3.56191
          Condensed to atoms (all electrons):
               1          2          3          4          5
     1  C    5.697450  -0.408825  -0.001284  -0.001284  -0.001284
     2  F   -0.408825  10.113675  -0.112556  -0.112556  -0.112556
     3  Cl  -0.001284  -0.112556  17.743634  -0.256889  -0.256889
     4  Cl  -0.001284  -0.112556  -0.256889  17.743634  -0.256889
     5  Cl  -0.001284  -0.112556  -0.256889  -0.256889  17.743634
 Mulliken charges:
               1
     1  C    0.715227
     2  F   -0.367181
     3  Cl  -0.116015
     4  Cl  -0.116015
     5  Cl  -0.116015
 Sum of Mulliken charges =  -0.00000
 Mulliken charges with hydrogens summed into heavy atoms:
               1
     1  C    0.715227
     2  F   -0.367181
     3  Cl  -0.116015
     4  Cl  -0.116015
     5  Cl  -0.116015
 APT charges:
               1
     1  C    1.501050
     2  F   -0.567704
     3  Cl  -0.311117
     4  Cl  -0.311115
     5  Cl  -0.311115
 Sum of APT charges =  -0.00000
 APT charges with hydrogens summed into heavy atoms:
               1
     1  C    1.501050
     2  F   -0.567704
     3  Cl  -0.311117
     4  Cl  -0.311115
     5  Cl  -0.311115
 Electronic spatial extent (au):  <R**2>=            724.1087
 Charge=             -0.0000 electrons
 Dipole moment (field-independent basis, Debye):
    X=              0.0000    Y=             -0.0000    Z=             -0.4588  Tot=              0.4588
 Quadrupole moment (field-independent basis, Debye-Ang):
   XX=            -46.7787   YY=            -46.7787   ZZ=            -49.3599
   XY=             -0.0000   XZ=             -0.0000   YZ=              0.0000
 Traceless Quadrupole moment (field-independent basis, Debye-Ang):
   XX=              0.8604   YY=              0.8604   ZZ=             -1.7208
   XY=             -0.0000   XZ=             -0.0000   YZ=              0.0000
 Octapole moment (field-independent basis, Debye-Ang**2):
  XXX=              0.0000  YYY=              5.8118  ZZZ=              6.6656  XYY=              0.0000
  XXY=             -5.8118  XXZ=             -0.5079  XZZ=              0.0000  YZZ=              0.0000
  YYZ=             -0.5079  XYZ=              0.0000
 Hexadecapole moment (field-independent basis, Debye-Ang**3):
 XXXX=           -344.2604 YYYY=           -344.2604 ZZZZ=           -153.5869 XXXY=              0.0000
 XXXZ=              0.0000 YYYX=              0.0000 YYYZ=             -5.7958 ZZZX=             -0.0000
 ZZZY=             -0.0000 XXYY=           -114.7535 XXZZ=            -85.3812 YYZZ=            -85.3812
 XXYZ=              5.7958 YYXZ=             -0.0000 ZZXY=              0.0000
 N-N= 3.647235758439D+02 E-N=-4.339946417613D+03  KE= 1.516964885038D+03
 Symmetry A'   KE= 1.002254711857D+03
 Symmetry A"   KE= 5.147101731813D+02
  Exact polarizability:      62.043       0.000      62.024       0.000      -0.004      48.342
 Approx polarizability:      69.105       0.000      69.105       0.000      -0.000      58.733
 Calling FoFJK, ICntrl=    100127 FMM=F ISym2X=1 I1Cent= 0 IOpClX= 0 NMat=1 NMatS=1 NMatT=0.
 ***** Axes restored to original set *****
 -------------------------------------------------------------------
 Center     Atomic                   Forces (Hartrees/Bohr)
 Number     Number              X              Y              Z
 -------------------------------------------------------------------
      1        6           0.000000000    0.000000000    0.009563669
      2        9          -0.000000000    0.000000000   -0.018498383
      3       17          -0.001488552    0.000000000    0.002978238
      4       17           0.000744276   -0.001289124    0.002978238
      5       17           0.000744276    0.001289124    0.002978238
 -------------------------------------------------------------------
 Cartesian Forces:  Max     0.018498383 RMS     0.005579194
 -----------------------------------------------------------------------------------------------
                       Internal Coordinate Forces (Hartree/Bohr or radian)
  Cent   Atom   N1       Length/X         N2         Alpha/Y        N3         Beta/Z          J
 -----------------------------------------------------------------------------------------------
      1  C 
      2  F        1  -0.018498(     1)
      3  Cl       1  -0.002367(     2)      2  -0.007854(     5)
      4  Cl       1  -0.002367(     3)      2  -0.007854(     6)      3  -0.000000(     8)     0
      5  Cl       1  -0.002367(     4)      2  -0.007854(     7)      3   0.000000(     9)     0
 -----------------------------------------------------------------------------------------------
 Internal  Forces:  Max     0.018498383 RMS     0.007775062

 GradGradGradGradGradGradGradGradGradGradGradGradGradGradGradGradGradGrad
 Berny optimization.
 Search for a local minimum.
 Step number   1 out of a maximum of   20
 All quantities printed in internal units (Hartrees-Bohrs-Radians)
 Second derivative matrix not updated -- analytic derivatives used.
 The second derivative matrix:
                          r2        r3        a3        r4        a4
           r2           0.33024
           r3           0.03647   0.21242
           a3           0.06710   0.00024   0.41759
           r4           0.03647   0.02883  -0.03000   0.21242
           a4           0.06712  -0.03000   0.10751   0.00024   0.41759
           d4           0.00000  -0.05448   0.07571   0.00000  -0.00000
           r5           0.03647   0.02883  -0.03000   0.02883  -0.03000
           a5           0.06712  -0.03000   0.10751  -0.03000   0.10751
           d5          -0.00000   0.05448  -0.07571  -0.05448   0.07571
                          d4        r5        a5        d5
           d4           0.39594
           r5           0.05448   0.21242
           a5          -0.07571   0.00024   0.41759
           d5          -0.19738  -0.00000   0.00000   0.39594
 ITU=  0
     Eigenvalues ---    0.10858   0.13914   0.19910   0.23525   0.29041
     Eigenvalues ---    0.34839   0.35832   0.65743   0.67550
 RFO step:  Lambda=-1.12779678D-03 EMin= 1.08584447D-01
 Linear search not attempted -- first point.
 Variable       Old X    -DE/DX   Delta X   Delta X   Delta X     New X
                                 (Linear)    (Quad)   (Total)
    r2        2.57078  -0.01850   0.00000  -0.05011  -0.05011   2.52067
    r3        3.35407  -0.00237   0.00000  -0.00362  -0.00362   3.35045
    a3        1.89805  -0.00785   0.00000  -0.00743  -0.00743   1.89061
    r4        3.35407  -0.00237   0.00000  -0.00363  -0.00363   3.35045
    a4        1.89805  -0.00785   0.00000  -0.00743  -0.00743   1.89062
    d4        4.18879  -0.00000   0.00000   0.00000   0.00000   4.18879
    r5        3.35407  -0.00237   0.00000  -0.00363  -0.00363   3.35045
    a5        1.89805  -0.00785   0.00000  -0.00743  -0.00743   1.89062
    d5        2.09440   0.00000   0.00000  -0.00000  -0.00000   2.09439
         Item               Value     Threshold  Converged?
 Maximum Force            0.018498     0.000002     NO 
 RMS     Force            0.007775     0.000001     NO 
 Maximum Displacement     0.050115     0.000006     NO 
 RMS     Displacement     0.017373     0.000004     NO 
 Predicted change in Energy=-5.654344D-04
 GradGradGradGradGradGradGradGradGradGradGradGradGradGradGradGradGradGrad

 ---------------------------------------------------------------------------------------------------
                            Z-MATRIX (ANGSTROMS AND DEGREES)
   CD    Cent   Atom    N1       Length/X        N2       Alpha/Y        N3        Beta/Z          J
 ---------------------------------------------------------------------------------------------------
      1      1  C 
      2      2  F        1   1.333881(     1)
      3      3  Cl       1   1.772982(     2)      2  108.324(     5)
      4      4  Cl       1   1.772982(     3)      2  108.324(     6)      3  240.000(     8)      0
      5      5  Cl       1   1.772982(     4)      2  108.324(     7)      3  120.000(     9)      0
 ---------------------------------------------------------------------------------------------------
                         Z-Matrix orientation:                         
 ---------------------------------------------------------------------
 Center     Atomic      Atomic             Coordinates (Angstroms)
 Number     Number       Type             X           Y           Z
 ---------------------------------------------------------------------
      1          6           0        0.000000    0.000000    0.000000
      2          9           0        0.000000    0.000000    1.333881
      3         17           0        1.683079    0.000000   -0.557415
      4         17           0       -0.841537    1.457587   -0.557422
      5         17           0       -0.841537   -1.457587   -0.557422
 ---------------------------------------------------------------------
                    Distance matrix (angstroms):
                    1          2          3          4          5
     1  C    0.000000
     2  F    1.333881   0.000000
     3  Cl   1.772982   2.531749   0.000000
     4  Cl   1.772982   2.531752   2.915175   0.000000
     5  Cl   1.772982   2.531752   2.915175   2.915175   0.000000
 Stoichiometry    CCl3F
 Framework group  C1[X(CCl3F)]
 Deg. of freedom     9
 Full point group                 C1      NOp   1
 Omega: Change in point group or standard orientation.

 Old FWG=C03V [C3(C1F1),3SGV(Cl1)]
 New FWG=C01  [X(C1Cl3F1)]
 Largest Abelian subgroup         C1      NOp   1
 Largest concise Abelian subgroup C1      NOp   1
                         Standard orientation:                         
 ---------------------------------------------------------------------
 Center     Atomic      Atomic             Coordinates (Angstroms)
 Number     Number       Type             X           Y           Z
 ---------------------------------------------------------------------
      1          6           0       -0.000001    0.000000    0.248841
      2          9           0       -0.000001    0.000000    1.582721
      3         17           0        1.683077    0.000004   -0.308575
      4         17           0       -0.841541    1.457586   -0.308581
      5         17           0       -0.841535   -1.457589   -0.308581
 ---------------------------------------------------------------------
 Rotational constants (GHZ):           2.4425423           2.4425420           1.7006174
 Basis read from rwf:  (5D, 7F)
 There are   137 symmetry adapted cartesian basis functions of A   symmetry.
 There are   127 symmetry adapted basis functions of A   symmetry.
   127 basis functions,   315 primitive gaussians,   137 cartesian basis functions
    33 alpha electrons       33 beta electrons
       nuclear repulsion energy       366.0745729095 Hartrees.
 NAtoms=    5 NActive=    5 NUniq=    5 SFac= 1.00D+00 NAtFMM=   60 NAOKFM=F Big=F
 Integral buffers will be    131072 words long.
 Raffenetti 2 integral format.
 Two-electron integral symmetry is turned on.
 Nuclear repulsion after empirical dispersion term =      366.0739363042 Hartrees.
 One-electron integrals computed using PRISM.
 NBasis=   127 RedAO= T EigKep=  1.72D-03  NBF=   127
 NBsUse=   127 1.00D-06 EigRej= -1.00D+00 NBFU=   127
 Initial guess from the checkpoint file:  "checkpoint.chk"
 B after Tr=     0.000000   -0.000000   -0.000000
         Rot=    0.707108   -0.000001    0.000001    0.707106 Ang= -90.00 deg.
 ExpMin= 3.35D-02 ExpMax= 6.35D+04 ExpMxC= 2.17D+03 IAcc=3 IRadAn=         5 AccDes= 0.00D+00
 Harris functional with IExCor= 4639 and IRadAn=       5 diagonalized for initial guess.
 HarFok:  IExCor= 4639 AccDes= 0.00D+00 IRadAn=         5 IDoV= 1 UseB2=F ITyADJ=14
 ICtDFT=  3500011 ScaDFX=  1.000000  1.000000  1.000000  1.000000
 FoFCou: FMM=F IPFlag=           0 FMFlag=      100000 FMFlg1=           0
         NFxFlg=           0 DoJE=T BraDBF=F KetDBF=T FulRan=T
         wScrn=  0.000000 ICntrl=       500 IOpCl=  0 I1Cent=   200000004 NGrid=           0
         NMat0=    1 NMatS0=      1 NMatT0=    0 NMatD0=    1 NMtDS0=    0 NMtDT0=    0
 Petite list used in FoFCou.
 Keep R1 ints in memory in canonical form, NReq=70977682.
 Requested convergence on RMS density matrix=1.00D-08 within 128 cycles.
 Requested convergence on MAX density matrix=1.00D-06.
 Requested convergence on             energy=1.00D-06.
 No special actions if energy rises.
 SCF Done:  E(RwB97XD) =  -1518.46295229     A.U. after   10 cycles
            NFock= 10  Conv=0.78D-08     -V/T= 2.0009
 DoSCS=F DFT=T ScalE2(SS,OS)=  1.000000  1.000000
 Range of M.O.s used for correlation:     1   127
 NBasis=   127 NAE=    33 NBE=    33 NFC=     0 NFV=     0
 NROrb=    127 NOA=    33 NOB=    33 NVA=    94 NVB=    94

 **** Warning!!: The largest alpha MO coefficient is  0.12192247D+02

 Symmetrizing basis deriv contribution to polar:
 IMax=3 JMax=2 DiffMx= 0.00D+00
 G2DrvN: will do     6 centers at a time, making    1 passes.
 Calling FoFCou, ICntrl=  3107 FMM=F I1Cent=   0 AccDes= 0.00D+00.
 End of G2Drv F.D. properties file   721 does not exist.
 End of G2Drv F.D. properties file   722 does not exist.
 End of G2Drv F.D. properties file   788 does not exist.
          IDoAtm=11111
          Differentiating once with respect to electric field.
                with respect to dipole field.
          Differentiating once with respect to nuclear coordinates.
 Keep R1 ints in memory in canonical form, NReq=70968592.
          There are    18 degrees of freedom in the 1st order CPHF.  IDoFFX=6 NUNeed=     3.
     15 vectors produced by pass  0 Test12= 1.72D-14 5.56D-09 XBig12= 2.67D+01 1.68D+00.
 AX will form    15 AO Fock derivatives at one time.
     15 vectors produced by pass  1 Test12= 1.72D-14 5.56D-09 XBig12= 3.00D+00 4.90D-01.
     15 vectors produced by pass  2 Test12= 1.72D-14 5.56D-09 XBig12= 4.24D-01 1.47D-01.
     15 vectors produced by pass  3 Test12= 1.72D-14 5.56D-09 XBig12= 3.23D-02 4.44D-02.
     15 vectors produced by pass  4 Test12= 1.72D-14 5.56D-09 XBig12= 3.37D-04 5.01D-03.
     15 vectors produced by pass  5 Test12= 1.72D-14 5.56D-09 XBig12= 1.52D-06 2.12D-04.
     15 vectors produced by pass  6 Test12= 1.72D-14 5.56D-09 XBig12= 1.03D-08 2.60D-05.
     10 vectors produced by pass  7 Test12= 1.72D-14 5.56D-09 XBig12= 9.63D-11 2.33D-06.
      3 vectors produced by pass  8 Test12= 1.72D-14 5.56D-09 XBig12= 8.22D-13 2.65D-07.
      3 vectors produced by pass  9 Test12= 1.72D-14 5.56D-09 XBig12= 6.36D-15 2.84D-08.
 InvSVY:  IOpt=1 It=  1 EMax= 7.77D-16
 Solved reduced A of dimension   121 with    15 vectors.
 Isotropic polarizability for W=    0.000000       57.31 Bohr**3.
 End of Minotr F.D. properties file   721 does not exist.
 End of Minotr F.D. properties file   722 does not exist.
 End of Minotr F.D. properties file   788 does not exist.
 Calling FoFJK, ICntrl=    100127 FMM=F ISym2X=0 I1Cent= 0 IOpClX= 0 NMat=1 NMatS=1 NMatT=0.
 ***** Axes restored to original set *****
 -------------------------------------------------------------------
 Center     Atomic                   Forces (Hartrees/Bohr)
 Number     Number              X              Y              Z
 -------------------------------------------------------------------
      1        6           0.000023803   -0.000000001   -0.001395796
      2        9           0.000002430   -0.000000000    0.001602238
      3       17           0.000088891   -0.000000000   -0.000071111
      4       17          -0.000057562    0.000083866   -0.000067665
      5       17          -0.000057562   -0.000083865   -0.000067665
 -------------------------------------------------------------------
 Cartesian Forces:  Max     0.001602238 RMS     0.000551289
 -----------------------------------------------------------------------------------------------
                       Internal Coordinate Forces (Hartree/Bohr or radian)
  Cent   Atom   N1       Length/X         N2         Alpha/Y        N3         Beta/Z          J
 -----------------------------------------------------------------------------------------------
      1  C 
      2  F        1   0.001602(     1)
      3  Cl       1   0.000107(     2)      2   0.000133(     5)
      4  Cl       1   0.000118(     3)      2   0.000108(     6)      3  -0.000025(     8)     0
      5  Cl       1   0.000118(     4)      2   0.000108(     7)      3   0.000025(     9)     0
 -----------------------------------------------------------------------------------------------
 Internal  Forces:  Max     0.001602238 RMS     0.000542476

 GradGradGradGradGradGradGradGradGradGradGradGradGradGradGradGradGradGrad
 Berny optimization.
 Search for a local minimum.
 Step number   2 out of a maximum of   20
 All quantities printed in internal units (Hartrees-Bohrs-Radians)
 Second derivative matrix not updated -- analytic derivatives used.
 DE= -5.36D-04 DEPred=-5.65D-04 R= 9.47D-01
 TightC=F SS=  1.41D+00  RLast= 5.21D-02 DXNew= 5.0454D-01 1.5636D-01
 Trust test= 9.47D-01 RLast= 5.21D-02 DXMaxT set to 3.00D-01
 The second derivative matrix:
                          r2        r3        a3        r4        a4
           r2           0.39546
           r3           0.03960   0.21662
           a3           0.07148   0.00683   0.42760
           r4           0.03960   0.02855  -0.02924   0.21645
           a4           0.07147  -0.02919   0.10460   0.00852   0.42807
           d4          -0.00001  -0.05416   0.07418   0.00023  -0.00010
           r5           0.03960   0.02855  -0.02924   0.02855  -0.02920
           a5           0.07147  -0.02919   0.10460  -0.02920   0.10436
           d5           0.00001   0.05416  -0.07418  -0.05414   0.07407
                          d4        r5        a5        d5
           d4           0.39300
           r5           0.05414   0.21645
           a5          -0.07407   0.00852   0.42807
           d5          -0.19604  -0.00023   0.00010   0.39300
 ITU=  1  0
     Eigenvalues ---    0.10926   0.14063   0.21802   0.24066   0.30663
     Eigenvalues ---    0.35866   0.39787   0.65286   0.69013
 RFO step:  Lambda=-1.32220393D-06 EMin= 1.09261524D-01
 Quintic linear search produced a step of -0.06493.
 Variable       Old X    -DE/DX   Delta X   Delta X   Delta X     New X
                                 (Linear)    (Quad)   (Total)
    r2        2.52067   0.00160   0.00325   0.00109   0.00435   2.52502
    r3        3.35045   0.00011   0.00024  -0.00060  -0.00037   3.35008
    a3        1.89061   0.00013   0.00048  -0.00073  -0.00025   1.89037
    r4        3.35045   0.00012   0.00024  -0.00046  -0.00022   3.35023
    a4        1.89062   0.00011   0.00048  -0.00086  -0.00038   1.89024
    d4        4.18879  -0.00003  -0.00000  -0.00007  -0.00007   4.18872
    r5        3.35045   0.00012   0.00024  -0.00046  -0.00022   3.35023
    a5        1.89062   0.00011   0.00048  -0.00086  -0.00038   1.89024
    d5        2.09439   0.00003   0.00000   0.00007   0.00007   2.09446
         Item               Value     Threshold  Converged?
 Maximum Force            0.001602     0.000002     NO 
 RMS     Force            0.000542     0.000001     NO 
 Maximum Displacement     0.004347     0.000006     NO 
 RMS     Displacement     0.001471     0.000004     NO 
 Predicted change in Energy=-3.351035D-06
 GradGradGradGradGradGradGradGradGradGradGradGradGradGradGradGradGradGrad

 ---------------------------------------------------------------------------------------------------
                            Z-MATRIX (ANGSTROMS AND DEGREES)
   CD    Cent   Atom    N1       Length/X        N2       Alpha/Y        N3        Beta/Z          J
 ---------------------------------------------------------------------------------------------------
      1      1  C 
      2      2  F        1   1.336181(     1)
      3      3  Cl       1   1.772787(     2)      2  108.310(     5)
      4      4  Cl       1   1.772864(     3)      2  108.303(     6)      3  239.996(     8)      0
      5      5  Cl       1   1.772864(     4)      2  108.303(     7)      3  120.004(     9)      0
 ---------------------------------------------------------------------------------------------------
                         Z-Matrix orientation:                         
 ---------------------------------------------------------------------
 Center     Atomic      Atomic             Coordinates (Angstroms)
 Number     Number       Type             X           Y           Z
 ---------------------------------------------------------------------
      1          6           0        0.000000    0.000000    0.000000
      2          9           0        0.000000    0.000000    1.336181
      3         17           0        1.683030    0.000000   -0.556940
      4         17           0       -0.841688    1.457614   -0.556750
      5         17           0       -0.841688   -1.457614   -0.556750
 ---------------------------------------------------------------------
                    Distance matrix (angstroms):
                    1          2          3          4          5
     1  C    0.000000
     2  F    1.336181   0.000000
     3  Cl   1.772787   2.533080   0.000000
     4  Cl   1.772864   2.533034   2.915277   0.000000
     5  Cl   1.772864   2.533034   2.915277   2.915227   0.000000
 Stoichiometry    CCl3F
 Framework group  C1[X(CCl3F)]
 Deg. of freedom     9
 Full point group                 C1      NOp   1
 Largest Abelian subgroup         C1      NOp   1
 Largest concise Abelian subgroup C1      NOp   1
                         Standard orientation:                         
 ---------------------------------------------------------------------
 Center     Atomic      Atomic             Coordinates (Angstroms)
 Number     Number       Type             X           Y           Z
 ---------------------------------------------------------------------
      1          6           0        0.000089    0.000000    0.248058
      2          9           0        0.000089    0.000000    1.584239
      3         17           0        1.683119   -0.000008   -0.308882
      4         17           0       -0.841592    1.457618   -0.308691
      5         17           0       -0.841606   -1.457610   -0.308691
 ---------------------------------------------------------------------
 Rotational constants (GHZ):           2.4413225           2.4412433           1.7005178
 Basis read from rwf:  (5D, 7F)
 There are   137 symmetry adapted cartesian basis functions of A   symmetry.
 There are   127 symmetry adapted basis functions of A   symmetry.
   127 basis functions,   315 primitive gaussians,   137 cartesian basis functions
    33 alpha electrons       33 beta electrons
       nuclear repulsion energy       365.9913316634 Hartrees.
 NAtoms=    5 NActive=    5 NUniq=    5 SFac= 1.00D+00 NAtFMM=   60 NAOKFM=F Big=F
 Integral buffers will be    131072 words long.
 Raffenetti 2 integral format.
 Two-electron integral symmetry is turned on.
 Nuclear repulsion after empirical dispersion term =      365.9906942851 Hartrees.
 One-electron integrals computed using PRISM.
 NBasis=   127 RedAO= T EigKep=  1.72D-03  NBF=   127
 NBsUse=   127 1.00D-06 EigRej= -1.00D+00 NBFU=   127
 Initial guess from the checkpoint file:  "checkpoint.chk"
 B after Tr=     0.000000    0.000000   -0.000000
         Rot=    1.000000   -0.000000   -0.000037    0.000003 Ang=  -0.00 deg.
 Keep R1 ints in memory in canonical form, NReq=70977682.
 Requested convergence on RMS density matrix=1.00D-08 within 128 cycles.
 Requested convergence on MAX density matrix=1.00D-06.
 Requested convergence on             energy=1.00D-06.
 No special actions if energy rises.
 SCF Done:  E(RwB97XD) =  -1518.46295566     A.U. after    8 cycles
            NFock=  8  Conv=0.71D-08     -V/T= 2.0009
 DoSCS=F DFT=T ScalE2(SS,OS)=  1.000000  1.000000
 Range of M.O.s used for correlation:     1   127
 NBasis=   127 NAE=    33 NBE=    33 NFC=     0 NFV=     0
 NROrb=    127 NOA=    33 NOB=    33 NVA=    94 NVB=    94

 **** Warning!!: The largest alpha MO coefficient is  0.12182761D+02

 Symmetrizing basis deriv contribution to polar:
 IMax=3 JMax=2 DiffMx= 0.00D+00
 G2DrvN: will do     6 centers at a time, making    1 passes.
 Calling FoFCou, ICntrl=  3107 FMM=F I1Cent=   0 AccDes= 0.00D+00.
 End of G2Drv F.D. properties file   721 does not exist.
 End of G2Drv F.D. properties file   722 does not exist.
 End of G2Drv F.D. properties file   788 does not exist.
          IDoAtm=11111
          Differentiating once with respect to electric field.
                with respect to dipole field.
          Differentiating once with respect to nuclear coordinates.
 Keep R1 ints in memory in canonical form, NReq=70968592.
          There are    18 degrees of freedom in the 1st order CPHF.  IDoFFX=6 NUNeed=     3.
     15 vectors produced by pass  0 Test12= 1.72D-14 5.56D-09 XBig12= 2.67D+01 1.67D+00.
 AX will form    15 AO Fock derivatives at one time.
     15 vectors produced by pass  1 Test12= 1.72D-14 5.56D-09 XBig12= 3.00D+00 4.90D-01.
     15 vectors produced by pass  2 Test12= 1.72D-14 5.56D-09 XBig12= 4.27D-01 1.48D-01.
     15 vectors produced by pass  3 Test12= 1.72D-14 5.56D-09 XBig12= 3.24D-02 4.44D-02.
     15 vectors produced by pass  4 Test12= 1.72D-14 5.56D-09 XBig12= 3.37D-04 5.02D-03.
     15 vectors produced by pass  5 Test12= 1.72D-14 5.56D-09 XBig12= 1.52D-06 2.12D-04.
     15 vectors produced by pass  6 Test12= 1.72D-14 5.56D-09 XBig12= 1.03D-08 2.51D-05.
     10 vectors produced by pass  7 Test12= 1.72D-14 5.56D-09 XBig12= 8.76D-11 2.27D-06.
      3 vectors produced by pass  8 Test12= 1.72D-14 5.56D-09 XBig12= 7.21D-13 2.42D-07.
      3 vectors produced by pass  9 Test12= 1.72D-14 5.56D-09 XBig12= 5.49D-15 2.57D-08.
 InvSVY:  IOpt=1 It=  1 EMax= 1.33D-15
 Solved reduced A of dimension   121 with    15 vectors.
 Isotropic polarizability for W=    0.000000       57.31 Bohr**3.
 End of Minotr F.D. properties file   721 does not exist.
 End of Minotr F.D. properties file   722 does not exist.
 End of Minotr F.D. properties file   788 does not exist.
 Calling FoFJK, ICntrl=    100127 FMM=F ISym2X=0 I1Cent= 0 IOpClX= 0 NMat=1 NMatS=1 NMatT=0.
 ***** Axes restored to original set *****
 -------------------------------------------------------------------
 Center     Atomic                   Forces (Hartrees/Bohr)
 Number     Number              X              Y              Z
 -------------------------------------------------------------------
      1        6          -0.000015140    0.000000001    0.000004124
      2        9           0.000016208    0.000000000   -0.000000288
      3       17          -0.000000686    0.000000001   -0.000001657
      4       17          -0.000000191   -0.000000734   -0.000001090
      5       17          -0.000000191    0.000000732   -0.000001090
 -------------------------------------------------------------------
 Cartesian Forces:  Max     0.000016208 RMS     0.000005864
 -----------------------------------------------------------------------------------------------
                       Internal Coordinate Forces (Hartree/Bohr or radian)
  Cent   Atom   N1       Length/X         N2         Alpha/Y        N3         Beta/Z          J
 -----------------------------------------------------------------------------------------------
      1  C 
      2  F        1  -0.000000(     1)
      3  Cl       1  -0.000000(     2)      2   0.000006(     5)
      4  Cl       1  -0.000000(     3)      2   0.000004(     6)      3  -0.000002(     8)     0
      5  Cl       1  -0.000000(     4)      2   0.000004(     7)      3   0.000002(     9)     0
 -----------------------------------------------------------------------------------------------
 Internal  Forces:  Max     0.000005992 RMS     0.000002874

 GradGradGradGradGradGradGradGradGradGradGradGradGradGradGradGradGradGrad
 Berny optimization.
 Search for a local minimum.
 Step number   3 out of a maximum of   20
 All quantities printed in internal units (Hartrees-Bohrs-Radians)
 Second derivative matrix not updated -- analytic derivatives used.
 DE= -3.37D-06 DEPred=-3.35D-06 R= 1.01D+00
 TightC=F SS=  1.41D+00  RLast= 4.41D-03 DXNew= 5.0454D-01 1.3242D-02
 Trust test= 1.01D+00 RLast= 4.41D-03 DXMaxT set to 3.00D-01
 The second derivative matrix:
                          r2        r3        a3        r4        a4
           r2           0.38973
           r3           0.03943   0.21664
           a3           0.07131   0.00663   0.42682
           r4           0.03943   0.02855  -0.02921   0.21640
           a4           0.07131  -0.02917   0.10455   0.00833   0.42732
           d4          -0.00001  -0.05413   0.07410   0.00024  -0.00009
           r5           0.03943   0.02855  -0.02921   0.02855  -0.02918
           a5           0.07131  -0.02917   0.10455  -0.02918   0.10430
           d5           0.00001   0.05413  -0.07410  -0.05413   0.07400
                          d4        r5        a5        d5
           d4           0.39304
           r5           0.05413   0.21640
           a5          -0.07400   0.00833   0.42732
           d5          -0.19610  -0.00024   0.00010   0.39305
 ITU=  1  1  0
     Eigenvalues ---    0.10928   0.14072   0.21678   0.24053   0.30599
     Eigenvalues ---    0.35800   0.39420   0.65280   0.68842
 RFO step:  Lambda= 0.00000000D+00 EMin= 1.09283001D-01
 Quintic linear search produced a step of -0.00081.
 Variable       Old X    -DE/DX   Delta X   Delta X   Delta X     New X
                                 (Linear)    (Quad)   (Total)
    r2        2.52502  -0.00000  -0.00000  -0.00000  -0.00001   2.52501
    r3        3.35008  -0.00000   0.00000  -0.00000  -0.00000   3.35008
    a3        1.89037   0.00001   0.00000   0.00001   0.00001   1.89038
    r4        3.35023  -0.00000   0.00000   0.00000   0.00000   3.35023
    a4        1.89024   0.00000   0.00000   0.00000   0.00000   1.89025
    d4        4.18872  -0.00000   0.00000  -0.00000  -0.00000   4.18872
    r5        3.35023  -0.00000   0.00000   0.00000   0.00000   3.35023
    a5        1.89024   0.00000   0.00000   0.00000   0.00000   1.89025
    d5        2.09446   0.00000  -0.00000   0.00000   0.00000   2.09447
         Item               Value     Threshold  Converged?
 Maximum Force            0.000006     0.000002     NO 
 RMS     Force            0.000003     0.000001     NO 
 Maximum Displacement     0.000015     0.000006     NO 
 RMS     Displacement     0.000006     0.000004     NO 
 Predicted change in Energy=-7.198533D-11
 GradGradGradGradGradGradGradGradGradGradGradGradGradGradGradGradGradGrad

 ---------------------------------------------------------------------------------------------------
                            Z-MATRIX (ANGSTROMS AND DEGREES)
   CD    Cent   Atom    N1       Length/X        N2       Alpha/Y        N3        Beta/Z          J
 ---------------------------------------------------------------------------------------------------
      1      1  C 
      2      2  F        1   1.336178(     1)
      3      3  Cl       1   1.772786(     2)      2  108.311(     5)
      4      4  Cl       1   1.772866(     3)      2  108.303(     6)      3  239.996(     8)      0
      5      5  Cl       1   1.772866(     4)      2  108.303(     7)      3  120.004(     9)      0
 ---------------------------------------------------------------------------------------------------
                         Z-Matrix orientation:                         
 ---------------------------------------------------------------------
 Center     Atomic      Atomic             Coordinates (Angstroms)
 Number     Number       Type             X           Y           Z
 ---------------------------------------------------------------------
      1          6           0        0.000000    0.000000    0.000000
      2          9           0        0.000000    0.000000    1.336178
      3         17           0        1.683021    0.000000   -0.556964
      4         17           0       -0.841694    1.457609   -0.556758
      5         17           0       -0.841694   -1.457609   -0.556758
 ---------------------------------------------------------------------
                    Distance matrix (angstroms):
                    1          2          3          4          5
     1  C    0.000000
     2  F    1.336178   0.000000
     3  Cl   1.772786   2.533090   0.000000
     4  Cl   1.772866   2.533038   2.915272   0.000000
     5  Cl   1.772866   2.533038   2.915272   2.915218   0.000000
 Stoichiometry    CCl3F
 Framework group  C1[X(CCl3F)]
 Deg. of freedom     9
 Full point group                 C1      NOp   1
 Largest Abelian subgroup         C1      NOp   1
 Largest concise Abelian subgroup C1      NOp   1
                         Standard orientation:                         
 ---------------------------------------------------------------------
 Center     Atomic      Atomic             Coordinates (Angstroms)
 Number     Number       Type             X           Y           Z
 ---------------------------------------------------------------------
      1          6           0        0.000094    0.000000    0.248069
      2          9           0        0.000094    0.000000    1.584247
      3         17           0        1.683116    0.000020   -0.308895
      4         17           0       -0.841617    1.457599   -0.308689
      5         17           0       -0.841582   -1.457619   -0.308689
 ---------------------------------------------------------------------
 Rotational constants (GHZ):           2.4413249           2.4412386           1.7005251
 Basis read from rwf:  (5D, 7F)
 There are   137 symmetry adapted cartesian basis functions of A   symmetry.
 There are   127 symmetry adapted basis functions of A   symmetry.
   127 basis functions,   315 primitive gaussians,   137 cartesian basis functions
    33 alpha electrons       33 beta electrons
       nuclear repulsion energy       365.9914535387 Hartrees.
 NAtoms=    5 NActive=    5 NUniq=    5 SFac= 1.00D+00 NAtFMM=   60 NAOKFM=F Big=F
 Integral buffers will be    131072 words long.
 Raffenetti 2 integral format.
 Two-electron integral symmetry is turned on.
 Nuclear repulsion after empirical dispersion term =      365.9908161616 Hartrees.
 One-electron integrals computed using PRISM.
 NBasis=   127 RedAO= T EigKep=  1.72D-03  NBF=   127
 NBsUse=   127 1.00D-06 EigRej= -1.00D+00 NBFU=   127
 Initial guess from the checkpoint file:  "checkpoint.chk"
 B after Tr=     0.000000   -0.000000    0.000000
         Rot=    1.000000    0.000000   -0.000003   -0.000008 Ang=  -0.00 deg.
 Keep R1 ints in memory in canonical form, NReq=70977682.
 Requested convergence on RMS density matrix=1.00D-08 within 128 cycles.
 Requested convergence on MAX density matrix=1.00D-06.
 Requested convergence on             energy=1.00D-06.
 No special actions if energy rises.
 SCF Done:  E(RwB97XD) =  -1518.46295566     A.U. after    4 cycles
            NFock=  4  Conv=0.75D-08     -V/T= 2.0009
 DoSCS=F DFT=T ScalE2(SS,OS)=  1.000000  1.000000
 Range of M.O.s used for correlation:     1   127
 NBasis=   127 NAE=    33 NBE=    33 NFC=     0 NFV=     0
 NROrb=    127 NOA=    33 NOB=    33 NVA=    94 NVB=    94

 **** Warning!!: The largest alpha MO coefficient is  0.12182779D+02

 Symmetrizing basis deriv contribution to polar:
 IMax=3 JMax=2 DiffMx= 0.00D+00
 G2DrvN: will do     6 centers at a time, making    1 passes.
 Calling FoFCou, ICntrl=  3107 FMM=F I1Cent=   0 AccDes= 0.00D+00.
 End of G2Drv F.D. properties file   721 does not exist.
 End of G2Drv F.D. properties file   722 does not exist.
 End of G2Drv F.D. properties file   788 does not exist.
          IDoAtm=11111
          Differentiating once with respect to electric field.
                with respect to dipole field.
          Differentiating once with respect to nuclear coordinates.
 Keep R1 ints in memory in canonical form, NReq=70968592.
          There are    18 degrees of freedom in the 1st order CPHF.  IDoFFX=6 NUNeed=     3.
     15 vectors produced by pass  0 Test12= 1.72D-14 5.56D-09 XBig12= 2.67D+01 1.67D+00.
 AX will form    15 AO Fock derivatives at one time.
     15 vectors produced by pass  1 Test12= 1.72D-14 5.56D-09 XBig12= 3.00D+00 4.90D-01.
     15 vectors produced by pass  2 Test12= 1.72D-14 5.56D-09 XBig12= 4.27D-01 1.48D-01.
     15 vectors produced by pass  3 Test12= 1.72D-14 5.56D-09 XBig12= 3.24D-02 4.44D-02.
     15 vectors produced by pass  4 Test12= 1.72D-14 5.56D-09 XBig12= 3.37D-04 5.02D-03.
     15 vectors produced by pass  5 Test12= 1.72D-14 5.56D-09 XBig12= 1.52D-06 2.12D-04.
     15 vectors produced by pass  6 Test12= 1.72D-14 5.56D-09 XBig12= 1.03D-08 2.51D-05.
     10 vectors produced by pass  7 Test12= 1.72D-14 5.56D-09 XBig12= 8.76D-11 2.27D-06.
      3 vectors produced by pass  8 Test12= 1.72D-14 5.56D-09 XBig12= 7.21D-13 2.42D-07.
      3 vectors produced by pass  9 Test12= 1.72D-14 5.56D-09 XBig12= 5.49D-15 2.57D-08.
 InvSVY:  IOpt=1 It=  1 EMax= 1.78D-15
 Solved reduced A of dimension   121 with    15 vectors.
 Isotropic polarizability for W=    0.000000       57.31 Bohr**3.
 End of Minotr F.D. properties file   721 does not exist.
 End of Minotr F.D. properties file   722 does not exist.
 End of Minotr F.D. properties file   788 does not exist.
 Calling FoFJK, ICntrl=    100127 FMM=F ISym2X=0 I1Cent= 0 IOpClX= 0 NMat=1 NMatS=1 NMatT=0.
 ***** Axes restored to original set *****
 -------------------------------------------------------------------
 Center     Atomic                   Forces (Hartrees/Bohr)
 Number     Number              X              Y              Z
 -------------------------------------------------------------------
      1        6          -0.000017402   -0.000000003   -0.000000012
      2        9           0.000017381   -0.000000000   -0.000000033
      3       17           0.000000007   -0.000000002    0.000000014
      4       17           0.000000007    0.000000007    0.000000016
      5       17           0.000000008   -0.000000001    0.000000015
 -------------------------------------------------------------------
 Cartesian Forces:  Max     0.000017402 RMS     0.000006350
 -----------------------------------------------------------------------------------------------
                       Internal Coordinate Forces (Hartree/Bohr or radian)
  Cent   Atom   N1       Length/X         N2         Alpha/Y        N3         Beta/Z          J
 -----------------------------------------------------------------------------------------------
      1  C 
      2  F        1  -0.000000(     1)
      3  Cl       1   0.000000(     2)      2  -0.000000(     5)
      4  Cl       1  -0.000000(     3)      2  -0.000000(     6)      3   0.000000(     8)     0
      5  Cl       1  -0.000000(     4)      2  -0.000000(     7)      3  -0.000000(     9)     0
 -----------------------------------------------------------------------------------------------
 Internal  Forces:  Max     0.000000054 RMS     0.000000034

 GradGradGradGradGradGradGradGradGradGradGradGradGradGradGradGradGradGrad
 Berny optimization.
 Search for a local minimum.
 Step number   4 out of a maximum of   20
 All quantities printed in internal units (Hartrees-Bohrs-Radians)
 Second derivative matrix not updated -- analytic derivatives used.
 DE= -7.16D-11 DEPred=-7.20D-11 R= 9.95D-01
 Trust test= 9.95D-01 RLast= 1.93D-05 DXMaxT set to 3.00D-01
 The second derivative matrix:
                          r2        r3        a3        r4        a4
           r2           0.38973
           r3           0.03943   0.21664
           a3           0.07131   0.00663   0.42681
           r4           0.03943   0.02855  -0.02921   0.21640
           a4           0.07131  -0.02917   0.10456   0.00833   0.42732
           d4          -0.00001  -0.05413   0.07410   0.00024  -0.00009
           r5           0.03943   0.02855  -0.02921   0.02855  -0.02918
           a5           0.07131  -0.02917   0.10456  -0.02918   0.10431
           d5           0.00001   0.05413  -0.07410  -0.05413   0.07400
                          d4        r5        a5        d5
           d4           0.39305
           r5           0.05413   0.21640
           a5          -0.07400   0.00833   0.42732
           d5          -0.19610  -0.00024   0.00009   0.39305
 ITU=  0  1  1  0
     Eigenvalues ---    0.10928   0.14072   0.21678   0.24052   0.30598
     Eigenvalues ---    0.35800   0.39421   0.65281   0.68843
 RFO step:  Lambda= 0.00000000D+00 EMin= 1.09281942D-01
 Quintic linear search produced a step of -0.00921.
 Variable       Old X    -DE/DX   Delta X   Delta X   Delta X     New X
                                 (Linear)    (Quad)   (Total)
    r2        2.52501  -0.00000   0.00000  -0.00000  -0.00000   2.52501
    r3        3.35008   0.00000   0.00000   0.00000   0.00000   3.35008
    a3        1.89038  -0.00000  -0.00000   0.00000  -0.00000   1.89038
    r4        3.35023  -0.00000  -0.00000   0.00000  -0.00000   3.35023
    a4        1.89025  -0.00000  -0.00000  -0.00000  -0.00000   1.89025
    d4        4.18872   0.00000   0.00000   0.00000   0.00000   4.18872
    r5        3.35023  -0.00000  -0.00000  -0.00000  -0.00000   3.35023
    a5        1.89025  -0.00000  -0.00000   0.00000  -0.00000   1.89025
    d5        2.09447  -0.00000  -0.00000   0.00000  -0.00000   2.09447
         Item               Value     Threshold  Converged?
 Maximum Force            0.000000     0.000002     YES
 RMS     Force            0.000000     0.000001     YES
 Maximum Displacement     0.000000     0.000006     YES
 RMS     Displacement     0.000000     0.000004     YES
 Predicted change in Energy=-8.495683D-15
 Optimization completed.
    -- Stationary point found.
                       ----------------------------
                       !   Optimized Parameters   !
                       ! (Angstroms and Degrees)  !
 ----------------------                            ----------------------
 !      Name          Value   Derivative information (Atomic Units)     !
 ------------------------------------------------------------------------
 !       r2          1.3362   -DE/DX =    0.0                           !
 !       r3          1.7728   -DE/DX =    0.0                           !
 !       a3        108.311    -DE/DX =    0.0                           !
 !       r4          1.7729   -DE/DX =    0.0                           !
 !       a4        108.3031   -DE/DX =    0.0                           !
 !       d4        239.9958   -DE/DX =    0.0                           !
 !       r5          1.7729   -DE/DX =    0.0                           !
 !       a5        108.3031   -DE/DX =    0.0                           !
 !       d5        120.0042   -DE/DX =    0.0                           !
 ------------------------------------------------------------------------
 GradGradGradGradGradGradGradGradGradGradGradGradGradGradGradGradGradGrad

 ---------------------------------------------------------------------------------------------------
                            Z-MATRIX (ANGSTROMS AND DEGREES)
   CD    Cent   Atom    N1       Length/X        N2       Alpha/Y        N3        Beta/Z          J
 ---------------------------------------------------------------------------------------------------
      1      1  C 
      2      2  F        1   1.336178(     1)
      3      3  Cl       1   1.772786(     2)      2  108.311(     5)
      4      4  Cl       1   1.772866(     3)      2  108.303(     6)      3  239.996(     8)      0
      5      5  Cl       1   1.772866(     4)      2  108.303(     7)      3  120.004(     9)      0
 ---------------------------------------------------------------------------------------------------
                         Z-Matrix orientation:                         
 ---------------------------------------------------------------------
 Center     Atomic      Atomic             Coordinates (Angstroms)
 Number     Number       Type             X           Y           Z
 ---------------------------------------------------------------------
      1          6           0        0.000000    0.000000    0.000000
      2          9           0        0.000000    0.000000    1.336178
      3         17           0        1.683021    0.000000   -0.556964
      4         17           0       -0.841694    1.457609   -0.556758
      5         17           0       -0.841694   -1.457609   -0.556758
 ---------------------------------------------------------------------
                    Distance matrix (angstroms):
                    1          2          3          4          5
     1  C    0.000000
     2  F    1.336178   0.000000
     3  Cl   1.772786   2.533090   0.000000
     4  Cl   1.772866   2.533038   2.915272   0.000000
     5  Cl   1.772866   2.533038   2.915272   2.915218   0.000000
 Stoichiometry    CCl3F
 Framework group  C1[X(CCl3F)]
 Deg. of freedom     9
 Full point group                 C1      NOp   1
 Largest Abelian subgroup         C1      NOp   1
 Largest concise Abelian subgroup C1      NOp   1
                         Standard orientation:                         
 ---------------------------------------------------------------------
 Center     Atomic      Atomic             Coordinates (Angstroms)
 Number     Number       Type             X           Y           Z
 ---------------------------------------------------------------------
      1          6           0        0.000094    0.000000    0.248069
      2          9           0        0.000094    0.000000    1.584247
      3         17           0        1.683116    0.000020   -0.308895
      4         17           0       -0.841617    1.457599   -0.308689
      5         17           0       -0.841582   -1.457619   -0.308689
 ---------------------------------------------------------------------
 Rotational constants (GHZ):           2.4413249           2.4412386           1.7005251

 **********************************************************************

            Population analysis using the SCF Density.

 **********************************************************************

 Orbital symmetries:
       Occupied  (A) (A) (A) (A) (A) (A) (A) (A) (A) (A) (A) (A)
                 (A) (A) (A) (A) (A) (A) (A) (A) (A) (A) (A) (A)
                 (A) (A) (A) (A) (A) (A) (A) (A) (A)
       Virtual   (A) (A) (A) (A) (A) (A) (A) (A) (A) (A) (A) (A)
                 (A) (A) (A) (A) (A) (A) (A) (A) (A) (A) (A) (A)
                 (A) (A) (A) (A) (A) (A) (A) (A) (A) (A) (A) (A)
                 (A) (A) (A) (A) (A) (A) (A) (A) (A) (A) (A) (A)
                 (A) (A) (A) (A) (A) (A) (A) (A) (A) (A) (A) (A)
                 (A) (A) (A) (A) (A) (A) (A) (A) (A) (A) (A) (A)
                 (A) (A) (A) (A) (A) (A) (A) (A) (A) (A) (A) (A)
                 (A) (A) (A) (A) (A) (A) (A) (A) (A) (A)
 The electronic state is 1-A.
 Alpha  occ. eigenvalues -- -101.71975-101.71973-101.71973 -24.87657 -10.56810
 Alpha  occ. eigenvalues --   -9.62013  -9.62011  -9.62010  -7.36798  -7.36797
 Alpha  occ. eigenvalues --   -7.36796  -7.35641  -7.35639  -7.35639  -7.35633
 Alpha  occ. eigenvalues --   -7.35631  -7.35631  -1.41050  -1.05838  -0.96785
 Alpha  occ. eigenvalues --   -0.96783  -0.77737  -0.66096  -0.64931  -0.64930
 Alpha  occ. eigenvalues --   -0.52947  -0.52946  -0.46733  -0.45484  -0.45483
 Alpha  occ. eigenvalues --   -0.42413  -0.42411  -0.40924
 Alpha virt. eigenvalues --    0.00922   0.05852   0.05853   0.05995   0.08398
 Alpha virt. eigenvalues --    0.08398   0.08967   0.12319   0.12420   0.12420
 Alpha virt. eigenvalues --    0.13864   0.13865   0.15745   0.16477   0.16837
 Alpha virt. eigenvalues --    0.16838   0.17139   0.24427   0.24749   0.24749
 Alpha virt. eigenvalues --    0.26716   0.26717   0.29219   0.29367   0.29368
 Alpha virt. eigenvalues --    0.30739   0.31936   0.31936   0.36149   0.36149
 Alpha virt. eigenvalues --    0.36594   0.36612   0.38005   0.38006   0.43244
 Alpha virt. eigenvalues --    0.43253   0.43639   0.43640   0.46893   0.46893
 Alpha virt. eigenvalues --    0.46958   0.52930   0.53539   0.53539   0.70324
 Alpha virt. eigenvalues --    0.71956   0.71957   0.77597   0.77597   0.81383
 Alpha virt. eigenvalues --    0.81385   0.82004   0.91529   0.92106   0.95808
 Alpha virt. eigenvalues --    0.95809   0.99066   0.99066   0.99503   1.00107
 Alpha virt. eigenvalues --    1.00108   1.00363   1.00944   1.00945   1.01041
 Alpha virt. eigenvalues --    1.02908   1.03823   1.03824   1.06603   1.06603
 Alpha virt. eigenvalues --    1.10902   1.13906   1.13907   1.16946   1.28325
 Alpha virt. eigenvalues --    1.28325   1.36075   1.52400   1.52401   1.60141
 Alpha virt. eigenvalues --    1.60149   1.78446   1.92577   2.03521   2.03521
 Alpha virt. eigenvalues --    2.19859   2.27336   2.27336   2.83077   2.89101
 Alpha virt. eigenvalues --    2.89102   2.99799   2.99800   3.58480
          Condensed to atoms (all electrons):
               1          2          3          4          5
     1  C    5.690789  -0.419448  -0.000243  -0.000150  -0.000150
     2  F   -0.419448  10.118223  -0.116406  -0.116419  -0.116419
     3  Cl  -0.000243  -0.116406  17.758228  -0.257524  -0.257524
     4  Cl  -0.000150  -0.116419  -0.257524  17.758187  -0.257523
     5  Cl  -0.000150  -0.116419  -0.257524  -0.257523  17.758187
 Mulliken charges:
               1
     1  C    0.729202
     2  F   -0.349531
     3  Cl  -0.126531
     4  Cl  -0.126570
     5  Cl  -0.126570
 Sum of Mulliken charges =  -0.00000
 Mulliken charges with hydrogens summed into heavy atoms:
               1
     1  C    0.729202
     2  F   -0.349531
     3  Cl  -0.126531
     4  Cl  -0.126570
     5  Cl  -0.126570
 APT charges:
               1
     1  C    1.511547
     2  F   -0.566653
     3  Cl  -0.314842
     4  Cl  -0.315026
     5  Cl  -0.315026
 Sum of APT charges =  -0.00000
 APT charges with hydrogens summed into heavy atoms:
               1
     1  C    1.511547
     2  F   -0.566653
     3  Cl  -0.314842
     4  Cl  -0.315026
     5  Cl  -0.315026
 Electronic spatial extent (au):  <R**2>=            721.5251
 Charge=             -0.0000 electrons
 Dipole moment (field-independent basis, Debye):
    X=              0.0006    Y=             -0.0000    Z=             -0.3500  Tot=              0.3500
 Quadrupole moment (field-independent basis, Debye-Ang):
   XX=            -46.8303   YY=            -46.8315   ZZ=            -49.2333
   XY=              0.0000   XZ=             -0.0003   YZ=             -0.0000
 Traceless Quadrupole moment (field-independent basis, Debye-Ang):
   XX=              0.8014   YY=              0.8002   ZZ=             -1.6016
   XY=              0.0000   XZ=             -0.0003   YZ=             -0.0000
 Octapole moment (field-independent basis, Debye-Ang**2):
  XXX=              5.7746  YYY=             -0.0002  ZZZ=              7.0216  XYY=             -5.7728
  XXY=              0.0002  XXZ=             -0.3515  XZZ=              0.0010  YZZ=              0.0000
  YYZ=             -0.3499  XYZ=             -0.0000
 Hexadecapole moment (field-independent basis, Debye-Ang**3):
 XXXX=           -345.3234 YYYY=           -345.3175 ZZZZ=           -149.0553 XXXY=              0.0000
 XXXZ=             -5.5988 YYYX=              0.0000 YYYZ=              0.0002 ZZZX=              0.0083
 ZZZY=              0.0000 XXYY=           -115.1042 XXZZ=            -85.0653 YYZZ=            -85.0657
 XXYZ=             -0.0002 YYXZ=              5.6088 ZZXY=             -0.0000
 N-N= 3.659908161616D+02 E-N=-4.342523576177D+03  KE= 1.517039178221D+03
  Exact polarizability:      62.008      -0.000      62.026      -0.004       0.000      47.908
 Approx polarizability:      69.024      -0.000      69.023      -0.001      -0.000      58.112
 Rotating derivatives to standard orientation.
 Full mass-weighted force constant matrix:
 Low frequencies ---   -4.9320   -0.0026    0.0018    0.0031    4.0591    8.4894
 Low frequencies ---  250.1464  250.2023  356.9702
 Diagonal vibrational polarizability:
        9.3059787       9.3209012       4.0470714
 Harmonic frequencies (cm**-1), IR intensities (KM/Mole), Raman scattering
 activities (A**4/AMU), depolarization ratios for plane and unpolarized
 incident light, reduced masses (AMU), force constants (mDyne/A),
 and normal coordinates:
                      1                      2                      3
                      A                      A                      A
 Frequencies --    250.1464               250.2022               356.9702
 Red. masses --     29.8296                29.8387                25.2326
 Frc consts  --      1.0997                 1.1006                 1.8944
 IR Inten    --      0.0342                 0.0383                 0.2104
  Atom  AN      X      Y      Z        X      Y      Z        X      Y      Z
     1   6    -0.20   0.00  -0.00    -0.00  -0.20   0.00    -0.00  -0.00   0.48
     2   9    -0.51   0.00  -0.00    -0.00  -0.51   0.00    -0.00  -0.00   0.53
     3  17    -0.32  -0.00  -0.22    -0.00   0.56  -0.00    -0.37  -0.00  -0.15
     4  17     0.34   0.38   0.11     0.38  -0.10  -0.19     0.19  -0.33  -0.15
     5  17     0.34  -0.38   0.11    -0.38  -0.10   0.19     0.19   0.33  -0.15
                      4                      5                      6
                      A                      A                      A
 Frequencies --    403.8342               403.8644               543.4804
 Red. masses --     25.2771                25.2760                22.8110
 Frc consts  --      2.4288                 2.4290                 3.9697
 IR Inten    --      0.0123                 0.0130                 1.5980
  Atom  AN      X      Y      Z        X      Y      Z        X      Y      Z
     1   6    -0.11   0.00   0.00    -0.00  -0.11   0.00    -0.00   0.00   0.52
     2   9     0.77  -0.00   0.00     0.00   0.77   0.00     0.00  -0.00   0.61
     3  17    -0.39  -0.00   0.30    -0.00   0.14   0.00     0.30   0.00  -0.17
     4  17     0.01   0.23  -0.15     0.23  -0.26   0.26    -0.15   0.26  -0.17
     5  17     0.01  -0.23  -0.15    -0.23  -0.26  -0.26    -0.15  -0.26  -0.17
                      7                      8                      9
                      A                      A                      A
 Frequencies --    849.9057               850.3778              1119.2320
 Red. masses --     12.8855                12.8869                13.7169
 Frc consts  --      5.4839                 5.4906                10.1239
 IR Inten    --    249.6883               249.6129               179.5439
  Atom  AN      X      Y      Z        X      Y      Z        X      Y      Z
     1   6     0.00   0.98  -0.00     0.98  -0.00  -0.00     0.00   0.00   0.87
     2   9    -0.00  -0.12   0.00    -0.12   0.00   0.00     0.00  -0.00  -0.49
     3  17    -0.00  -0.03   0.00    -0.15   0.00   0.02     0.00   0.00  -0.01
     4  17     0.05  -0.12   0.02    -0.06   0.05  -0.01    -0.00   0.00  -0.01
     5  17    -0.05  -0.12  -0.02    -0.06  -0.05  -0.01    -0.00  -0.00  -0.01

 -------------------
 - Thermochemistry -
 -------------------
 Temperature   298.150 Kelvin.  Pressure   1.00000 Atm.
 Atom     1 has atomic number  6 and mass  12.00000
 Atom     2 has atomic number  9 and mass  18.99840
 Atom     3 has atomic number 17 and mass  34.96885
 Atom     4 has atomic number 17 and mass  34.96885
 Atom     5 has atomic number 17 and mass  34.96885
 Molecular mass:   135.90496 amu.
 Principal axes and moments of inertia in atomic units:
                           1         2         3
     Eigenvalues --   739.24662 739.272761061.28465
           X            1.00000  -0.00000   0.00009
           Y            0.00000   1.00000   0.00000
           Z           -0.00009  -0.00000   1.00000
 This molecule is an asymmetric top.
 Rotational symmetry number  1.
 Warning -- assumption of classical behavior for rotation
           may cause significant error
 Rotational temperatures (Kelvin)      0.11717     0.11716     0.08161
 Rotational constants (GHZ):           2.44132     2.44124     1.70053
 Zero-point vibrational energy      30074.2 (Joules/Mol)
                                    7.18791 (Kcal/Mol)
 Warning -- explicit consideration of   6 degrees of freedom as
           vibrations may cause significant error
 Vibrational temperatures:    359.90   359.99   513.60   581.03   581.07
          (Kelvin)            781.95  1222.82  1223.50  1610.33
 
 Zero-point correction=                           0.011455 (Hartree/Particle)
 Thermal correction to Energy=                    0.016572
 Thermal correction to Enthalpy=                  0.017516
 Thermal correction to Gibbs Free Energy=        -0.018562
 Sum of electronic and zero-point Energies=          -1518.451501
 Sum of electronic and thermal Energies=             -1518.446384
 Sum of electronic and thermal Enthalpies=           -1518.445440
 Sum of electronic and thermal Free Energies=        -1518.481517
 
                     E (Thermal)             CV                S
                      KCal/Mol        Cal/Mol-Kelvin    Cal/Mol-Kelvin
 Total                   10.399             16.532             75.932
 Electronic               0.000              0.000              0.000
 Translational            0.889              2.981             40.632
 Rotational               0.889              2.981             27.852
 Vibrational              8.621             10.571              7.447
 Vibration     1          0.663              1.763              1.730
 Vibration     2          0.663              1.762              1.729
 Vibration     3          0.732              1.561              1.135
 Vibration     4          0.769              1.462              0.949
 Vibration     5          0.769              1.462              0.949
 Vibration     6          0.899              1.154              0.558
                       Q            Log10(Q)             Ln(Q)
 Total Bot       0.344960D+09          8.537768         19.658938
 Total V=0       0.640531D+14         13.806540         31.790734
 Vib (Bot)       0.203190D-04         -4.692097        -10.803953
 Vib (Bot)    1  0.780175D+00         -0.107808         -0.248237
 Vib (Bot)    2  0.779980D+00         -0.107916         -0.248487
 Vib (Bot)    3  0.514494D+00         -0.288620         -0.664571
 Vib (Bot)    4  0.440117D+00         -0.356431         -0.820714
 Vib (Bot)    5  0.440075D+00         -0.356474         -0.820811
 Vib (Bot)    6  0.290558D+00         -0.536767         -1.235952
 Vib (V=0)       0.377290D+01          0.576675          1.327843
 Vib (V=0)    1  0.142665D+01          0.154316          0.355326
 Vib (V=0)    2  0.142648D+01          0.154266          0.355211
 Vib (V=0)    3  0.121743D+01          0.085444          0.196741
 Vib (V=0)    4  0.116611D+01          0.066740          0.153674
 Vib (V=0)    5  0.116608D+01          0.066729          0.153650
 Vib (V=0)    6  0.107829D+01          0.032737          0.075380
 Electronic      0.100000D+01          0.000000          0.000000
 Translational   0.622740D+08          7.794307         17.947055
 Rotational      0.272621D+06          5.435559         12.515836
 ***** Axes restored to original set *****
 -------------------------------------------------------------------
 Center     Atomic                   Forces (Hartrees/Bohr)
 Number     Number              X              Y              Z
 -------------------------------------------------------------------
      1        6          -0.000017402   -0.000000003   -0.000000012
      2        9           0.000017381   -0.000000000   -0.000000033
      3       17           0.000000007   -0.000000002    0.000000014
      4       17           0.000000007    0.000000007    0.000000016
      5       17           0.000000008   -0.000000001    0.000000015
 -------------------------------------------------------------------
 Cartesian Forces:  Max     0.000017402 RMS     0.000006350
 -----------------------------------------------------------------------------------------------
                       Internal Coordinate Forces (Hartree/Bohr or radian)
  Cent   Atom   N1       Length/X         N2         Alpha/Y        N3         Beta/Z          J
 -----------------------------------------------------------------------------------------------
      1  C 
      2  F        1  -0.000000(     1)
      3  Cl       1   0.000000(     2)      2  -0.000000(     5)
      4  Cl       1  -0.000000(     3)      2  -0.000000(     6)      3   0.000000(     8)     0
      5  Cl       1  -0.000000(     4)      2  -0.000000(     7)      3  -0.000000(     9)     0
 -----------------------------------------------------------------------------------------------
 Internal  Forces:  Max     0.000000054 RMS     0.000000034

 ----------------------------------------------------------------------

 Electric dipole moment (input orientation):
 (Debye = 10**-18 statcoulomb cm , SI units = C m)
                  (au)            (Debye)         (10**-30 SI)
   Tot        0.137707D+00      0.350016D+00      0.116753D+01
   x          0.242579D-03      0.616574D-03      0.205667D-02
   y          0.000000D+00      0.000000D+00      0.000000D+00
   z         -0.137707D+00     -0.350015D+00     -0.116752D+01

 Dipole polarizability, Alpha (input orientation).
 (esu units = cm**3 , SI units = C**2 m**2 J**-1)
 Alpha(0;0):
               (au)            (10**-24 esu)      (10**-40 SI)
   iso        0.573140D+02      0.849306D+01      0.944981D+01
   aniso      0.141088D+02      0.209071D+01      0.232623D+01
   xx         0.620077D+02      0.918859D+01      0.102237D+02
[...]
 0.00528537,0.00000043,-0.02254000,-0.00000123,-0.00000006,-0.00638145,
 0.00000007,0.,-0.00019164,-0.00000035,0.00000022,-0.00018784,0.,-0.010
 90723,-0.00699353,-0.00000023,-0.00000034,-0.01077515,0.00000002,0.,0.
 00010997,-0.00000003,-0.00000088,-0.00163406,0.00000036,-0.00000013,0.
 00156411,0.00000027,0.00000109,-0.00140198,0.00000015,0.00089274,0.001
 15409,0.00000009,-0.00145736,-0.00389919,-0.00000017,0.00000035,0.0011
 6309,-0.00000002,0.00000029,-0.00212382,-0.00000039,-0.00000059,0.0013
 6438,0.00000038,-0.00475187,0.01218259,-0.00422386,0.00024506,0.002808
 59,-0.00433842,-0.00371123,0.00207360,0.00012271,0.00821807,0.01206464
 ,-0.02084758,0.00819774,0.00301551,-0.00153766,0.00606113,0.00198463,-
 0.00017454,-0.00020181,-0.01603621,0.02255956,-0.00395350,0.00799654,0
 .00096022,-0.00495158,0.00646038,-0.01067003,0.00060567,-0.00039987,0.
 00052559,0.00836949,-0.01313051,0.00918424,0.00475233,0.01218311,0.004
 22390,-0.00024515,0.00280867,0.00433849,0.00371115,0.00207348,-0.00012
 276,-0.00000003,-0.00102858,-0.00007009,-0.00821830,0.01206518,0.02084
 866,0.00819820,0.00301556,0.00153780,0.00606140,0.00198451,0.00017448,
 -0.00020184,-0.00102857,0.00000021,-0.00092653,-0.01603669,-0.02256115
 ,0.00395355,0.00799697,-0.00096029,0.00495163,0.00646070,0.01067043,-0
 .00060571,-0.00039989,-0.00052557,0.00007008,-0.00092655,-0.00000002,-
 0.00836955,-0.01313123,-0.00918455,-0.06216985,-0.00000019,-0.06194953
 ,0.00061389,-0.00000054,-0.02534074,-0.00384686,0.,0.00000529,-0.00237
 686,0.,-0.00385541,0.,0.,-0.00236881,-0.00002486,0.,0.02556363,0.00001
 300,0.,-0.04564098,0.04666875,0.00000029,-0.01277550,0.00588457,0.,-0.
 00713976,-0.06061111,0.00000028,-0.00203273,0.00000009,0.,-0.00174350,
 0.,-0.00000028,0.00243824,-0.01368351,0.00000008,0.00034948,-0.0085194
 2,0.,0.00667130,0.02100539,-0.00000009,-0.00557286,0.00967396,-0.02070
 029,0.00607835,0.00016957,-0.00330211,0.00357581,0.00402890,-0.0034981
 1,0.00059877,-0.01286297,-0.02069435,0.03391839,-0.01039948,-0.0033011
 6,0.00398387,-0.00619766,-0.00232440,0.00066900,-0.00028905,0.02691022
 ,-0.04431909,0.00654743,-0.01121669,-0.00028621,0.00425057,-0.00736367
 ,0.00670303,-0.00054507,0.00037070,-0.00072396,-0.01020599,0.01754793,
 -0.00496852,0.00967401,0.02070019,0.00607797,0.00016958,0.00330211,0.0
 0357581,0.00402889,0.00349810,0.00059877,-0.00100946,-0.00059031,-0.00
 004694,-0.01286302,0.02069426,0.03391929,0.01039993,0.00330115,0.00398
 386,0.00619765,0.00232439,0.00066900,0.00028905,0.00059030,0.00574784,
 0.00066173,-0.02691010,-0.04431998,0.00654705,0.01121713,-0.00028615,0
 .00425056,0.00736367,0.00670302,-0.00054507,-0.00037070,-0.00072396,-0
 .00004694,-0.00066174,-0.00072434,-0.01020560,-0.01754837,-0.00496857,
 0.00004097,-0.12117620,-0.00004032,-0.00002768,-0.08475141,-0.00000061
 ,-0.00000134,0.00407993,0.00000554,0.00000040,0.00406217,0.00000130,0.
 01711774,-0.00117465,-0.00000035,0.00000858,0.02654274,0.00000027,-0.0
 0000747,-0.02313690,-0.00000024,-0.00004492,0.01281416,0.00001529,0.00
 000044,-0.00235096,-0.00000068,0.00004464,0.00452761,0.00000128,-0.000
 28634,-0.00023160,0.00000002,-0.00018242,-0.00788697,-0.00000178,0.000
 01421,-0.00321400,-0.00000428,0.00000070,0.00184782,0.00000121,-0.0000
 1493,0.00092832,0.00000280,-0.02867443,0.05213163,-0.02011086,0.000902
 23,-0.00026808,0.00082705,0.00062972,0.00179573,-0.00035259,0.02714268
 ,0.05628604,-0.08367186,0.03395281,-0.00133722,0.00032776,-0.00161144,
 -0.00128846,0.00028416,0.00021882,-0.05427380,0.08306023,-0.01992627,0
 .03070423,-0.01114879,-0.00013563,0.00208563,0.00324033,-0.00009917,-0
 .00022981,0.00070761,0.01989877,-0.03298902,0.00720111,0.02867972,0.05
 215048,0.02011771,-0.00090173,-0.00026848,-0.00082748,-0.00062987,0.00
 179523,0.00035261,-0.00000021,0.00061344,0.00026229,-0.02714791,0.0563
 0038,0.08370961,0.03396721,-0.00133646,-0.00032873,-0.00161199,-0.0012
 8777,-0.00028367,0.00021905,0.00061452,-0.00000028,0.00042897,-0.05429
 067,-0.08309692,0.01993116,0.03071845,0.01115342,0.00013686,0.00208571
 ,-0.00324156,0.00009949,-0.00022975,-0.00070734,-0.00026237,0.00042883
 ,-0.00000026,-0.01990513,-0.03300324,-0.00720427,0.12498789,0.00003988
 ,-0.12126865,-0.08647494,0.00002744,0.00039308,-0.00411801,-0.00000132
 ,0.01714998,0.00118212,-0.00000130,0.00403930,-0.00000552,0.00000039,-
 0.00114187,0.02654428,-0.00000855,0.00042841,-0.02315130,0.00000748,-0
 .00047109,-0.13579348,-0.00000533,0.04715792,0.00136837,0.00000076,-0.
 00211875,0.13481097,-0.00000263,0.00541261,0.00000016,0.00000008,0.000
 07263,0.00000005,0.00000380,-0.00696852,0.04382952,0.00000111,-0.01388
 906,0.00214909,-0.00000060,0.00378607,-0.04602472,-0.00000036,0.009274
 14,0.00747044,-0.02952779,0.01109016,0.00078347,0.00061755,-0.00063737
 ,-0.00019308,0.00071303,0.00002317,-0.00736582,-0.02232298,0.05593537,
 -0.02007236,-0.00120756,-0.00148512,0.00081716,-0.00106843,0.00074157,
 -0.00035661,0.02639828,-0.05486567,0.00805716,-0.01991001,0.00653768,0
 .00192616,-0.00014542,-0.00187273,0.00049281,-0.00010255,0.00041420,-0
 .01033405,0.01988503,-0.00425830,0.00745316,0.02949456,0.01107687,0.00
 078405,-0.00061739,-0.00063686,-0.00019278,-0.00071428,0.00002294,-0.0
 0069501,-0.00179931,-0.00014208,-0.00734943,0.02228704,0.05588138,0.02
 005028,0.00120841,-0.00148493,-0.00081614,0.00106921,0.00074172,0.0003
 5647,0.00179892,-0.00032614,0.00027294,-0.02636358,-0.05481202,0.00804
 397,0.01989001,0.00652990,0.00192607,0.00014406,-0.00187066,0.00049275
 ,0.00010269,0.00041466,-0.00014191,-0.00027322,-0.00082086,-0.01032088
 ,-0.01986354,-0.00425304,-0.07723359,0.00000011,-0.07622362,0.00060077
 ,-0.00000056,0.45410189,0.02258105,0.,-0.00004199,-0.02169307,0.,0.022
 56433,0.,0.,-0.02169332,-0.00004715,0.00000001,-0.45274174,0.00003487,
 0.,0.46837702,0.03699450,0.00000007,-0.00773614,-0.00266586,0.,0.00670
 283,-0.03351868,0.00000006,-0.00009401,0.00000017,0.,0.00209525,0.,-0.
 00000008,-0.00067813,-0.01259131,0.00000017,-0.00000398,0.00891691,0.,
 -0.00518368,0.00226568,-0.00000017,0.00549805,0.00882913,-0.01585003,0
 .00358894,0.00088894,0.00206368,-0.00334528,-0.00040499,-0.00023413,0.
 00070436,-0.00851408,-0.01581824,0.02687605,-0.00605358,0.00205861,-0.
 00148314,0.00578521,-0.00021478,-0.00066156,-0.00031793,0.01399745,-0.
 02450572,0.00601910,-0.01029093,-0.00067812,-0.00445490,0.00772069,-0.
 00522580,-0.00061618,0.00044524,-0.00015519,-0.00087035,0.00135565,0.0
 0622375,0.00882892,0.01584985,0.00358842,0.00088894,-0.00206367,-0.003
 34527,-0.00040497,0.00023414,0.00070436,-0.00079899,-0.00002304,-0.000
 07767,-0.00851389,0.01581807,0.02687725,0.00605397,-0.00205861,-0.0014
 8313,-0.00578521,0.00021479,-0.00066155,0.00031793,0.00002304,-0.00022
 563,0.00076935,-0.01399729,-0.02450693,0.00601859,0.01029131,-0.000678
 05,-0.00445489,-0.00772068,-0.00522579,-0.00061618,-0.00044524,-0.0001
 5520,-0.00007767,-0.00076935,-0.00016463,-0.00086984,-0.00135604,0.006
 22367,0.00033127,-0.00000171,-0.00393296,-0.00087523,-0.00000197,-0.00
 396520,-0.00028097,0.00000012,0.00016762,0.00035188,0.00000010,-0.0000
 8390,-0.00000008,0.,0.00009497,-0.00005131,-0.00000026,0.00256596,-0.0
 0091239,-0.00000010,-0.00272231,-0.00001063,0.00000031,-0.00028153,-0.
 00013498,-0.00000017,0.00049022,-0.00025494,0.00000013,0.00008613,-0.0
 0000008,-0.00000016,0.00010594,0.00000018,0.00000506,0.00028261,0.0000
 3977,-0.00000015,0.00005315,0.00017214,0.00000020,-0.00031307,-0.00041
 990,-0.00000016,0.00023318,-0.00001942,-0.00073162,0.00049449,0.000032
 19,-0.00022351,0.00023667,0.00020384,0.00007380,0.00010390,-0.00039483
 ,-0.00050545,0.00196358,-0.00116541,-0.00022624,-0.00005850,-0.0000650
 3,0.00010321,-0.00023604,-0.00006849,0.00075511,-0.00029146,0.00044318
 ,-0.00127004,0.00067263,0.00028632,-0.00013963,0.00023453,0.00010557,-
 0.00006722,0.00001306,-0.00080662,0.00138776,-0.00117775,-0.00002025,0
 .00073289,0.00049465,0.00003186,0.00022359,0.00023680,0.00019602,-0.00
 007883,0.00010410,0.00017829,-0.00012664,-0.00002845,-0.00038622,0.000
 50692,0.00196714,0.00116753,0.00022628,-0.00005855,0.00006522,-0.00010
 841,-0.00023878,0.00006860,0.00012622,-0.00137768,0.00008913,-0.000751
 01,-0.00029208,0.00044360,0.00127242,0.00067345,0.00028631,0.00013961,
 0.00023487,0.00010564,0.00006727,0.00001331,-0.00002844,-0.00008883,0.
 00025761,-0.00080710,-0.00139047,-0.00117890,-0.00480961,0.00000036,-0
 .00209978,0.00092553,0.00000140,-0.00299713,-0.00012192,-0.00000005,-0
 .00019867,0.00011556,-0.00000006,-0.00029686,-0.00000041,-0.00000009,0
 .00040614,-0.00000462,-0.00000022,0.00257008,0.00097506,0.00000098,-0.
 00272049,0.00487618,0.00000035,-0.00090652,0.00027301,0.00000016,-0.00
 041147,-0.00340549,0.00000061,0.00091846,-0.00000015,0.00000017,-0.000
 33023,-0.00000017,0.00000117,-0.00068083,-0.00109083,-0.00000003,-0.00
 016816,-0.00042044,-0.00000016,0.00042727,0.00162854,0.00000024,-0.000
 56073,0.00002801,-0.00012567,0.00009009,-0.00013352,0.00009725,-0.0002
 7946,-0.00087054,0.00024362,-0.00005854,0.00109115,-0.00036433,0.00074
 019,-0.00047946,0.00009840,0.00011048,0.00015529,0.00041155,0.00004659
 ,0.00005048,-0.00018070,-0.00130434,0.00008538,-0.00025452,0.00029803,
 -0.00017803,-0.00006033,-0.00013831,-0.00015524,0.00009860,0.00015066,
 0.00022333,0.00024509,-0.00025462,0.00002734,0.00012501,0.00008957,-0.
 00013314,-0.00009726,-0.00027950,-0.00087394,-0.00024556,-0.00005874,-
 0.00011534,0.00003509,0.00002457,0.00109529,0.00036343,0.00073799,0.00
 047862,-0.00009843,0.00011045,-0.00015588,-0.00041322,0.00004550,-0.00
 005052,-0.00003450,0.00040666,-0.00002883,0.00018272,-0.00130061,0.000
 08454,0.00025336,0.00029719,-0.00017791,0.00005993,-0.00013855,-0.0001
 5531,-0.00009852,0.00015040,0.00002459,0.00002861,-0.00005584,0.000224
 09,-0.00024338,-0.00025255,-0.00073520,-0.00000017,0.00113631,0.001387
 42,-0.00000024,0.00303661,0.00009151,0.00000003,0.00000735,0.00040011,
 0.00000002,0.00010367,-0.00000024,0.00000056,0.00036558,-0.00002987,-0
 .00000023,-0.00006336,0.00000367,0.00000173,-0.00087175,0.00027097,-0.
 00000019,-0.00034662,-0.00034863,0.,0.00008878,0.00137579,-0.00000016,
 0.00036756,0.00000011,0.,0.00000777,0.,0.00000052,-0.00009266,-0.00036
 475,0.00000013,-0.00105760,-0.00016353,0.00000001,0.00033229,0.0003600
 5,-0.00000019,0.00047581,0.00018640,0.00009410,-0.00052397,-0.00007134
 ,0.00015588,-0.00003090,-0.00064919,0.00053421,0.00008411,0.00041252,0
 .00009798,-0.00080351,0.00049026,0.00015409,-0.00023807,0.00005560,0.0
 0035118,-0.00014149,-0.00001584,-0.00069377,0.00209975,-0.00049628,0.0
 0046922,-0.00095765,0.00007666,-0.00012622,0.00030232,-0.00005111,0.00
 005515,0.00012446,0.00049365,-0.00046410,0.00040164,0.00018632,-0.0000
 9377,-0.00052418,-0.00007168,-0.00015646,-0.00003168,-0.00064946,-0.00
 053458,0.00008411,0.00012124,0.00009052,-0.00002291,0.00041382,-0.0000
 9768,-0.00080404,-0.00048989,-0.00015469,-0.00023901,-0.00005710,-0.00
 035150,-0.00014165,0.00001589,-0.00009042,-0.00091715,0.00006596,0.000
 69429,0.00210188,-0.00049652,-0.00046888,-0.00095801,0.00007585,0.0001
 2472,0.00030046,-0.00005110,-0.00005507,0.00012446,-0.00002289,-0.0000
 6592,0.00012888,0.00049465,0.00046514,0.00040461,0.01102938,-0.0000012
 5,0.00000519,-0.00285211,-0.00000088,-0.01603650,-0.00132923,0.0000000
 7,0.00048929,0.00141096,0.00000005,-0.00040226,-0.00000020,0.00000023,
 0.00014690,0.00014743,-0.00000022,0.01460916,-0.00325545,0.00000097,-0
 .00909023,-0.00862682,0.00000009,0.00316445,-0.00055809,-0.00000002,0.
 00260624,0.00879656,0.00000015,0.00106615,-0.00000003,-0.00000002,0.00
 086147,0.00000004,0.00000057,-0.00183040,0.00385761,0.,0.00006551,0.00
 201716,0.00000006,-0.00410884,-0.00570784,-0.00000008,0.00420248,-0.00
 053665,0.00108301,-0.00040101,0.00023828,-0.00007513,0.00025107,0.0001
 9462,-0.00001682,-0.00008345,0.00002610,0.00117732,-0.00033566,-0.0004
 4777,-0.00007838,-0.00030282,0.00056790,-0.00010699,-0.00004860,0.0001
 7323,-0.00099153,0.00115795,-0.00057664,-0.00006067,0.00068090,0.00037
 470,0.00049429,-0.00070458,-0.00003143,0.00007615,-0.00007962,0.000254
 99,-0.00040158,0.00006582,-0.00053669,-0.00108192,-0.00040062,0.000238
 05,0.00007487,0.00025071,0.00019365,0.00001612,-0.00008347,0.00007744,
 -0.00000041,-0.00002162,0.00002748,-0.00117627,-0.00033342,0.00044888,
 0.00007811,-0.00030331,-0.00056870,0.00010635,-0.00004872,-0.00017321,
 0.00000047,-0.00047131,-0.00010819,0.00099135,0.00115654,-0.00057628,0
 .00006177,0.00068093,0.00037430,-0.00049512,-0.00070552,-0.00003143,-0
 .00007608,-0.00007962,-0.00002160,0.00010821,0.00003735,0.00025501,0.0
 0040122,0.00006725,0.00130712,0.00000038,0.00968271,0.00054440,-0.0000
 0028,-0.01800551,-0.00044749,0.,-0.00054643,0.00017773,0.,-0.00135145,
 -0.00000027,0.00000005,0.00143374,-0.00018301,-0.00000024,0.01460575,0
 .00332345,0.00000072,-0.00902397,0.00062660,-0.00000018,-0.00021534,0.
 00008250,0.,-0.00041640,-0.00019444,-0.00000017,0.00028006,0.00000001,
 0.00000003,-0.00026809,-0.00000003,0.00000343,-0.00004683,0.00007624,0
 .00000002,-0.00000181,-0.00032649,-0.00000002,0.00042429,0.00022044,-0
 .00000004,-0.00036314,-0.00074261,0.00278666,0.00010870,0.00009361,0.0
 0057763,-0.00136198,-0.00025484,0.00011942,0.00001490,0.00099678,0.002
 67941,-0.00430584,0.00056563,0.00057945,0.00009299,0.00137695,0.000043
 67,0.00001833,0.00000198,-0.00339317,0.00383608,-0.00021878,0.00107700
 ,0.00170070,-0.00122524,0.00097203,-0.00300292,0.00020565,-0.00004509,
 -0.00002976,0.00132627,-0.00197429,0.00143465,-0.00074362,-0.00278687,
 0.00010866,0.00009363,-0.00057768,-0.00136206,-0.00026034,-0.00012271,
 0.00001491,-0.00009280,0.00009063,-0.00008791,0.00100378,-0.00267962,-
 0.00430548,-0.00056509,-0.00057954,0.00009278,-0.00137741,-0.00004692,
 0.00001645,-0.00000195,-0.00009055,0.00035823,-0.00002966,0.00339663,0
 .00383876,-0.00021886,-0.00107651,0.00170087,-0.00122529,-0.00097246,-
 0.00300316,0.00020565,0.00004515,-0.00002977,-0.00008790,0.00002972,-0
 .00010250,0.00132640,0.00197411,0.00143540,0.02337080,0.00000092,0.014
 54706,-0.00784057,-0.00000191,-0.00733964,0.00059068,0.00000005,0.0001
 2340,0.00101036,0.00000002,0.00073953,-0.00000022,0.00000010,0.0009848
 0,0.00012289,-0.00000019,-0.00123338,0.00000196,0.00000079,0.00502063,
 -0.01998682,0.00000032,0.00601267,-0.00148911,0.,0.00156568,0.02167794
 ,0.00000037,0.00161006,0.00000012,0.,0.00043770,0.,-0.00000446,-0.0021
 1214,0.00662783,0.00000015,-0.00127367,0.00179654,0.,-0.00115708,-0.00
 803844,-0.00000019,0.00246104,-0.00198635,0.00742158,0.00085239,-0.000
 05594,0.00089212,-0.00084514,-0.00010483,0.00034918,-0.00019296,0.0020
 2955,0.00739821,-0.00844885,-0.00204697,0.00089806,-0.00108090,0.00147
 428,-0.00008780,0.00003085,0.00018425,-0.00843571,0.00973057,0.0005450
 7,-0.00154618,0.00492259,-0.00096080,0.00166740,-0.00131475,0.00023003
 ,-0.00005824,-0.00001538,0.00023934,0.00016272,-0.00359250,-0.00198832
 ,-0.00742288,0.00085212,-0.00005603,-0.00089223,-0.00084540,-0.0000976
 6,-0.00034508,-0.00019297,0.00011738,0.00022724,-0.00005364,0.00202456
 ,-0.00739953,-0.00844780,0.00204899,-0.00089821,-0.00108117,-0.0014748
 8,0.00009195,0.00003327,-0.00018421,-0.00022717,-0.00023208,-0.0002256
 9,0.00843296,0.00972778,0.00054478,0.00154814,0.00492409,-0.00096109,-
 0.00166797,-0.00131544,0.00023005,0.00005832,-0.00001538,-0.00005362,0
 .00022572,-0.00000005,0.00023989,-0.00016420,-0.00359325,0.03694714,0.
 00002206,0.10865986,0.03886120,0.00001417,-0.05522774,-0.00188561,-0.0
 0000106,0.00290299,0.00241051,-0.00000125,-0.00586082,0.00000156,0.000
 00137,0.00694593,0.00561026,0.00000349,0.04994056,-0.00238835,-0.00000
 069,-0.05156003,0.02470164,0.00002213,-0.00178916,-0.00066000,-0.00000
 008,-0.00198764,-0.02370440,0.00001980,0.00144245,-0.00000369,-0.00000
 033,0.00037524,-0.00000009,-0.00001912,-0.00206473,-0.00460497,-0.0000
 0437,-0.00145873,-0.00056156,-0.00000014,0.00036426,0.00493013,0.00000
 389,0.00082143,-0.02987552,0.05656438,-0.01998158,0.00006773,-0.000058
 82,-0.00061665,-0.00016726,-0.00033390,0.00011794,0.02880011,0.0588002
 2,-0.05208416,0.01673567,0.00029902,-0.00073015,0.00079072,0.00115004,
 0.00012360,-0.00007582,-0.05821036,0.05936643,-0.01992752,0.01525976,0
 .00336995,0.00002350,-0.00055424,0.00062780,-0.00057609,0.00006745,0.0
 0013617,0.01990656,-0.01611153,-0.00456489,-0.02988764,-0.05660750,-0.
 01999345,0.00006733,0.00005879,-0.00061762,-0.00017014,0.00033354,0.00
 011847,0.00117487,-0.00203892,0.00057355,0.02881586,-0.05884083,-0.052
 15733,-0.01674772,-0.00029901,-0.00073023,-0.00079343,-0.00115297,0.00
 012333,0.00007644,0.00203871,-0.00667578,0.00133856,0.05825410,0.05944
 022,-0.01993898,-0.01527306,0.00337597,0.00002343,0.00055351,0.0006274
 0,-0.00057724,-0.00006756,0.00013626,0.00057373,-0.00133905,0.00043114
 ,0.01991906,0.01612615,-0.00457038,0.11773036,-0.00002924,0.03463846,-
 0.05034673,-0.00002174,-0.03359888,-0.00582458,0.00000123,-0.00261944,
 0.00682109,0.00000117,-0.00195579,-0.00000200,-0.00000152,0.00246579,-
 0.00619200,-0.00000399,0.04953317,0.00265569,0.00000157,-0.05160845,-0
 .11354029,-0.00001038,0.05494113,-0.00056113,0.00000011,0.00197223,0.1
 1936527,-0.00000756,0.02541192,0.00000071,0.00000024,-0.00019165,0.000
 00026,0.00000460,-0.02481537,0.05406149,0.00000162,-0.02118135,-0.0009
 5120,0.00000018,0.00121936,-0.05493702,-0.00000124,0.01955086,0.000815
 18,0.00795368,-0.00099075,-0.00021796,0.00061543,0.00078147,-0.0026357
 7,-0.00014001,0.00091366,0.00181620,0.00445040,-0.02908399,0.00981658,
 0.00038230,-0.00015927,-0.00081268,0.00383841,-0.00020368,-0.00108647,
 -0.00855019,0.02837780,0.00123554,0.00812327,0.00262331,0.00045744,-0.
 00034814,0.00042786,-0.00098874,0.00026852,0.00020532,-0.00067603,-0.0
 0798068,-0.00338416,0.00081932,-0.00791529,-0.00098421,-0.00021744,-0.
 00061519,0.00078261,-0.00262885,0.00014273,0.00091307,0.00022185,-0.00
 012092,-0.00002821,0.00180511,-0.00441477,-0.02901061,-0.00979355,-0.0
 0038225,-0.00015912,0.00081484,-0.00383274,-0.00020151,0.00108591,0.00
 012109,0.00106868,-0.00006297,0.00850866,0.02830273,0.00124171,-0.0080
 9917,0.00262375,0.00045751,0.00034839,0.00042804,-0.00098761,-0.000268
 25,0.00020523,-0.00002835,0.00006325,0.00012739,-0.00068326,0.00795577
 ,-0.00338401,-0.06212545,-0.00000064,-0.07402349,-0.00919815,-0.000004
 13,0.46769279,0.06571607,0.00000005,-0.00013933,-0.06467042,0.00000001
 ,0.06598327,-0.00000017,0.00000067,-0.06464861,-0.00032387,-0.00000011
 ,-0.47671778,0.00060242,0.00000193,0.47928608,-0.00885381,-0.00000016,
 -0.00409320,-0.00109529,0.,0.00545439,0.00953834,-0.00000012,-0.000954
 70,0.00000058,0.,0.00044124,0.,0.00000155,0.00029806,-0.00018002,0.000
 00060,-0.00174307,0.00109634,0.,-0.00064444,-0.00119329,-0.00000065,0.
 00186207,0.00263154,-0.00116052,0.00671508,0.00002500,0.00080966,-0.00
 286605,0.00020616,-0.00004472,0.00013849,-0.00294030,-0.00114416,0.004
 49495,-0.01200346,0.00081214,-0.00088725,0.00495101,-0.00009101,0.0001
 0776,0.00000565,0.00040927,-0.00390507,0.00485077,-0.00882683,0.005383
 03,-0.00077927,0.00136057,-0.00096095,-0.00008396,0.00013508,0.0002625
 3,-0.00391929,0.00718899,-0.00495800,0.00263164,0.00116127,0.00671559,
 0.00002460,-0.00081034,-0.00286689,0.00020383,0.00004329,0.00013848,0.
 00007750,0.00001376,-0.00006826,-0.00293765,0.00114491,0.00449997,0.01
 200718,-0.00081286,-0.00088867,-0.00495282,0.00008962,0.00010713,-0.00
 000561,-0.00001369,0.00018954,0.00014219,-0.00040799,-0.00390823,0.004
 85127,0.00883046,0.00538502,-0.00078016,-0.00136233,-0.00096294,-0.000
 08395,-0.00013501,0.00026253,-0.00006824,-0.00014218,0.00027350,-0.003
 91892,-0.00719094,-0.00495806\\@
 The archive entry for this job was punched.


 THE GREAT THING ABOUT BEING IMPERFECT IS THE JOY IT BRINGS OTHERS.
   -- SIGN OUTSIDE LAKE AGASSIZ JR. HIGH SCHOOL, FARGO, N.D.
 Job cpu time:       0 days  1 hours 24 minutes 36.1 seconds.
 Elapsed time:       0 days  0 hours 42 minutes  4.4 seconds.
 File lengths (MBytes):  RWF=     56 Int=      0 D2E=      0 Chk=     41 Scr=      1
 Normal termination of Gaussian 16 at Mon Jul 27 13:20:59 2020.
