 Entering Gaussian System, Link 0=g16
 Input=CFC-13.gjf
 Output=CFC-13.log
 Initial command:
 /apps/gaussian/g16c01/g16/l1.exe "/jobfs/11280140.gadi-pbs/Gau-2509698.inp" -scrdir="/jobfs/11280140.gadi-pbs/"
 Entering Link 1 = /apps/gaussian/g16c01/g16/l1.exe PID=   2509699.
  
 Copyright (c) 1988-2019, Gaussian, Inc.  All Rights Reserved.
  
 This is part of the Gaussian(R) 16 program.  It is based on
 the Gaussian(R) 09 system (copyright 2009, Gaussian, Inc.),
 the Gaussian(R) 03 system (copyright 2003, Gaussian, Inc.),
 the Gaussian(R) 98 system (copyright 1998, Gaussian, Inc.),
 the Gaussian(R) 94 system (copyright 1995, Gaussian, Inc.),
 the Gaussian 92(TM) system (copyright 1992, Gaussian, Inc.),
 the Gaussian 90(TM) system (copyright 1990, Gaussian, Inc.),
 the Gaussian 88(TM) system (copyright 1988, Gaussian, Inc.),
 the Gaussian 86(TM) system (copyright 1986, Carnegie Mellon
 University), and the Gaussian 82(TM) system (copyright 1983,
 Carnegie Mellon University). Gaussian is a federally registered
 trademark of Gaussian, Inc.
  
 This software contains proprietary and confidential information,
 including trade secrets, belonging to Gaussian, Inc.
  
 This software is provided under written license and may be
 used, copied, transmitted, or stored only in accord with that
 written license.
  
 The following legend is applicable only to US Government
 contracts under FAR:
  
                    RESTRICTED RIGHTS LEGEND
  
 Use, reproduction and disclosure by the US Government is
 subject to restrictions as set forth in subparagraphs (a)
 and (c) of the Commercial Computer Software - Restricted
 Rights clause in FAR 52.227-19.
  
 Gaussian, Inc.
 340 Quinnipiac St., Bldg. 40, Wallingford CT 06492
  
  
 ---------------------------------------------------------------
 Warning -- This program may not be used in any manner that
 competes with the business of Gaussian, Inc. or will provide
 assistance to any competitor of Gaussian, Inc.  The licensee
 of this program is prohibited from giving any competitor of
 Gaussian, Inc. access to this program.  By using this program,
 the user acknowledges that Gaussian, Inc. is engaged in the
 business of creating and licensing software in the field of
 computational chemistry and represents and warrants to the
 licensee that it is not a competitor of Gaussian, Inc. and that
 it will not use this program in any manner prohibited above.
 ---------------------------------------------------------------
  

 Cite this work as:
 Gaussian 16, Revision C.01,
 M. J. Frisch, G. W. Trucks, H. B. Schlegel, G. E. Scuseria, 
 M. A. Robb, J. R. Cheeseman, G. Scalmani, V. Barone, 
 G. A. Petersson, H. Nakatsuji, X. Li, M. Caricato, A. V. Marenich, 
 J. Bloino, B. G. Janesko, R. Gomperts, B. Mennucci, H. P. Hratchian, 
 J. V. Ortiz, A. F. Izmaylov, J. L. Sonnenberg, D. Williams-Young, 
 F. Ding, F. Lipparini, F. Egidi, J. Goings, B. Peng, A. Petrone, 
 T. Henderson, D. Ranasinghe, V. G. Zakrzewski, J. Gao, N. Rega, 
 G. Zheng, W. Liang, M. Hada, M. Ehara, K. Toyota, R. Fukuda, 
 J. Hasegawa, M. Ishida, T. Nakajima, Y. Honda, O. Kitao, H. Nakai, 
 T. Vreven, K. Throssell, J. A. Montgomery, Jr., J. E. Peralta, 
 F. Ogliaro, M. J. Bearpark, J. J. Heyd, E. N. Brothers, K. N. Kudin, 
 V. N. Staroverov, T. A. Keith, R. Kobayashi, J. Normand, 
 K. Raghavachari, A. P. Rendell, J. C. Burant, S. S. Iyengar, 
 J. Tomasi, M. Cossi, J. M. Millam, M. Klene, C. Adamo, R. Cammi, 
 J. W. Ochterski, R. L. Martin, K. Morokuma, O. Farkas, 
 J. B. Foresman, and D. J. Fox, Gaussian, Inc., Wallingford CT, 2019.
 
 ******************************************
 Gaussian 16:  ES64L-G16RevC.01  3-Jul-2019
                15-Sep-2020 
 ******************************************
 %NprocShared=4
 Will use up to    4 processors via shared memory.
 %chk=checkpoint.chk
 ----------------------------------------------------------------------
 # wB97xD/Gen Freq=(anharmonic,ReadAnharm) Opt=(VeryTight,ZMatrix,CalcA
 ll,MaxCycles=400) Int=UltraFine
 ----------------------------------------------------------------------
 1/6=400,7=1,10=4,18=40,26=4,38=1,80=1/1,3;
 2/12=2,17=6,18=5,29=3,40=1/2;
 3/5=7,11=2,25=1,30=1,71=2,74=-58,75=-5,140=1/1,2,3;
 4//1;
 5/5=2,38=5/2;
 8/6=4,10=90,11=11/1;
 11/6=1,8=1,9=11,15=111,16=1/1,2,10;
 10/6=1/2;
 6/7=2,8=2,9=2,10=2,18=1,28=1/1;
 7/10=1,25=1/1,2,3,16;
 1/6=400,7=1,10=4,18=40,26=4,80=1/3(3);
 2/29=3/2;
 7/8=1,9=1,25=1,44=-1,71=2,72=1/16;
 99//99;
 2/29=3/2;
 3/5=7,6=1,11=2,25=1,30=1,71=2,74=-58,75=-5,82=7,140=1/1,2,3;
 4/5=5,16=3,69=1/1;
 5/5=2,38=5/2;
 8/6=4,10=90,11=11/1;
 11/6=1,8=1,9=11,15=111,16=1/1,2,10;
 10/6=1/2;
 7/10=1,25=1/1,2,3,16;
 1/6=400,7=1,10=4,18=40,26=4,80=1/3(-8);
 2/29=3/2;
 6/7=2,8=2,9=2,10=2,18=1,19=2,28=1/1;
 7/8=1,9=1,25=1,44=-1,71=1,72=1/16;
 99//99;
 -------------------------------------
 CFC-13 - CClF3 ANHARMONIC FREQUENCIES
 -------------------------------------
 Symbolic Z-matrix:
 Charge =  0 Multiplicity = 1
 C
 F                    1    B1
 Cl                   1    B2       2    A2
 F                    1    B3       2    A3       3    D3       0
 F                    1    B4       2    A4       3    D4       0
       Variables:
  B1                    1.38152                  
  B2                    1.77799                  
  A2                  109.4713                   
  B3                    1.38152                  
  A3                  109.47114                  
  D3                  239.99991                  
  B4                    1.38152                  
  A4                  109.47114                  
  D4                  120.00009                  
 
     3 tetrahedral angles replaced.
    3 tetrahedral angles replaced.

 GradGradGradGradGradGradGradGradGradGradGradGradGradGradGradGradGradGrad
 Berny optimization.
 Initialization pass.
                       ----------------------------
                       !    Initial Parameters    !
                       ! (Angstroms and Degrees)  !
 ----------------------                            ----------------------
 !      Name          Value   Derivative information (Atomic Units)     !
 ------------------------------------------------------------------------
 !       B1          1.3815   calculate D2E/DX2 analytically            !
 !       B2          1.778    calculate D2E/DX2 analytically            !
 !       A2        109.4712   calculate D2E/DX2 analytically            !
 !       B3          1.3815   calculate D2E/DX2 analytically            !
 !       A3        109.4712   calculate D2E/DX2 analytically            !
 !       D3        239.9999   calculate D2E/DX2 analytically            !
 !       B4          1.3815   calculate D2E/DX2 analytically            !
 !       A4        109.4712   calculate D2E/DX2 analytically            !
 !       D4        120.0001   calculate D2E/DX2 analytically            !
 ------------------------------------------------------------------------
 Trust Radius=3.00D-01 FncErr=1.00D-07 GrdErr=1.00D-06 EigMax=2.50D+02 EigMin=1.00D-04
 Number of steps in this run=    100 maximum allowed number of steps=    100.
 GradGradGradGradGradGradGradGradGradGradGradGradGradGradGradGradGradGrad

 ---------------------------------------------------------------------------------------------------
                            Z-MATRIX (ANGSTROMS AND DEGREES)
   CD    Cent   Atom    N1       Length/X        N2       Alpha/Y        N3        Beta/Z          J
 ---------------------------------------------------------------------------------------------------
      1      1  C 
      2      2  F        1   1.381520(     1)
      3      3  Cl       1   1.777990(     2)      2  109.471(     5)
      4      4  F        1   1.381520(     3)      2  109.471(     6)      3  240.000(     8)      0
      5      5  F        1   1.381520(     4)      2  109.471(     7)      3  120.000(     9)      0
 ---------------------------------------------------------------------------------------------------
                         Z-Matrix orientation:                         
 ---------------------------------------------------------------------
 Center     Atomic      Atomic             Coordinates (Angstroms)
 Number     Number       Type             X           Y           Z
 ---------------------------------------------------------------------
      1          6           0        0.000000    0.000000    0.000000
      2          9           0        0.000000    0.000000    1.381520
      3         17           0        1.676305    0.000000   -0.592663
      4          9           0       -0.651257    1.128005   -0.460507
      5          9           0       -0.651257   -1.128005   -0.460507
 ---------------------------------------------------------------------
                    Distance matrix (angstroms):
                    1          2          3          4          5
     1  C    0.000000
     2  F    1.381520   0.000000
     3  Cl   1.777990   2.589865   0.000000
     4  F    1.381520   2.256013   2.589866   0.000000
     5  F    1.381520   2.256013   2.589866   2.256011   0.000000
 This structure is nearly, but not quite of a higher symmetry.
 Consider Symm=Loose if the higher symmetry is desired.
 Stoichiometry    CClF3
 Framework group  CS[SG(CClF),X(F2)]
 Deg. of freedom     6
 Full point group                 CS      NOp   2
 Largest Abelian subgroup         CS      NOp   2
 Largest concise Abelian subgroup CS      NOp   2
                         Standard orientation:                         
 ---------------------------------------------------------------------
 Center     Atomic      Atomic             Coordinates (Angstroms)
 Number     Number       Type             X           Y           Z
 ---------------------------------------------------------------------
      1          6           0        0.355842   -0.000000   -0.000000
      2          9           0        0.816350    1.302509    0.000000
      3         17           0       -1.422148    0.000001    0.000000
      4          9           0        0.816350   -0.651256    1.128005
      5          9           0        0.816350   -0.651256   -1.128005
 ---------------------------------------------------------------------
 Rotational constants (GHZ):           5.2265761           3.1872375           3.1872352
 General basis read from cards:  (5D, 7F)
 There are    82 symmetry adapted cartesian basis functions of A'  symmetry.
 There are    47 symmetry adapted cartesian basis functions of A"  symmetry.
 There are    74 symmetry adapted basis functions of A'  symmetry.
 There are    45 symmetry adapted basis functions of A"  symmetry.
   119 basis functions,   235 primitive gaussians,   129 cartesian basis functions
    25 alpha electrons       25 beta electrons
       nuclear repulsion energy       243.1949138107 Hartrees.
 NAtoms=    5 NActive=    5 NUniq=    4 SFac= 1.56D+00 NAtFMM=   60 NAOKFM=F Big=F
 Integral buffers will be    131072 words long.
 Raffenetti 2 integral format.
 Two-electron integral symmetry is turned on.
 Nuclear repulsion after empirical dispersion term =      243.1944082082 Hartrees.
 One-electron integrals computed using PRISM.
 NBasis=   119 RedAO= T EigKep=  1.47D-03  NBF=    74    45
 NBsUse=   119 1.00D-06 EigRej= -1.00D+00 NBFU=    74    45
 ExpMin= 3.35D-02 ExpMax= 6.35D+04 ExpMxC= 2.17D+03 IAcc=3 IRadAn=         5 AccDes= 0.00D+00
 Harris functional with IExCor= 4639 and IRadAn=       5 diagonalized for initial guess.
 HarFok:  IExCor= 4639 AccDes= 0.00D+00 IRadAn=         5 IDoV= 1 UseB2=F ITyADJ=14
 ICtDFT=  3500011 ScaDFX=  1.000000  1.000000  1.000000  1.000000
 FoFCou: FMM=F IPFlag=           0 FMFlag=      100000 FMFlg1=           0
         NFxFlg=           0 DoJE=T BraDBF=F KetDBF=T FulRan=T
         wScrn=  0.000000 ICntrl=       500 IOpCl=  0 I1Cent=   200000004 NGrid=           0
         NMat0=    1 NMatS0=      1 NMatT0=    0 NMatD0=    1 NMtDS0=    0 NMtDT0=    0
 Petite list used in FoFCou.
 Initial guess orbital symmetries:
       Occupied  (A') (A') (A") (A') (A') (A') (A') (A') (A") (A')
                 (A") (A') (A') (A') (A') (A") (A') (A') (A") (A")
                 (A') (A") (A') (A") (A')
       Virtual   (A') (A') (A") (A') (A') (A") (A') (A') (A") (A')
                 (A') (A") (A') (A') (A") (A") (A') (A') (A") (A')
                 (A') (A') (A") (A') (A') (A') (A") (A') (A') (A")
                 (A') (A") (A') (A") (A") (A') (A') (A") (A') (A")
                 (A') (A') (A") (A') (A') (A") (A") (A") (A') (A')
                 (A') (A") (A') (A") (A') (A") (A') (A') (A") (A')
                 (A') (A") (A') (A') (A") (A') (A") (A') (A") (A')
                 (A') (A") (A') (A') (A") (A') (A') (A") (A") (A")
                 (A") (A') (A') (A") (A') (A") (A') (A') (A') (A")
                 (A') (A') (A") (A')
 The electronic state of the initial guess is 1-A'.
 Keep R1 ints in memory in symmetry-blocked form, NReq=76615628.
 Requested convergence on RMS density matrix=1.00D-08 within 128 cycles.
 Requested convergence on MAX density matrix=1.00D-06.
 Requested convergence on             energy=1.00D-06.
 No special actions if energy rises.
 SCF Done:  E(RwB97XD) =  -797.682481361     A.U. after   11 cycles
            NFock= 11  Conv=0.63D-08     -V/T= 2.0021
 DoSCS=F DFT=T ScalE2(SS,OS)=  1.000000  1.000000
 Range of M.O.s used for correlation:     1   119
 NBasis=   119 NAE=    25 NBE=    25 NFC=     0 NFV=     0
 NROrb=    119 NOA=    25 NOB=    25 NVA=    94 NVB=    94
 Symmetrizing basis deriv contribution to polar:
 IMax=3 JMax=2 DiffMx= 0.00D+00
 G2DrvN: will do     6 centers at a time, making    1 passes.
 Calling FoFCou, ICntrl=  3107 FMM=F I1Cent=   0 AccDes= 0.00D+00.
 End of G2Drv F.D. properties file   721 does not exist.
 End of G2Drv F.D. properties file   722 does not exist.
 End of G2Drv F.D. properties file   788 does not exist.
          IDoAtm=11111
          Differentiating once with respect to electric field.
                with respect to dipole field.
          Differentiating once with respect to nuclear coordinates.
 Keep R1 ints in memory in symmetry-blocked form, NReq=76618147.
          There are    15 degrees of freedom in the 1st order CPHF.  IDoFFX=4 NUNeed=    15.
     15 vectors produced by pass  0 Test12= 1.57D-14 6.67D-09 XBig12= 1.43D+01 2.26D+00.
 AX will form    15 AO Fock derivatives at one time.
     15 vectors produced by pass  1 Test12= 1.57D-14 6.67D-09 XBig12= 1.84D+00 3.48D-01.
     15 vectors produced by pass  2 Test12= 1.57D-14 6.67D-09 XBig12= 1.94D-01 1.00D-01.
     15 vectors produced by pass  3 Test12= 1.57D-14 6.67D-09 XBig12= 5.01D-03 1.86D-02.
     15 vectors produced by pass  4 Test12= 1.57D-14 6.67D-09 XBig12= 6.13D-05 1.76D-03.
     15 vectors produced by pass  5 Test12= 1.57D-14 6.67D-09 XBig12= 4.08D-07 1.82D-04.
     15 vectors produced by pass  6 Test12= 1.57D-14 6.67D-09 XBig12= 2.96D-09 1.84D-05.
      6 vectors produced by pass  7 Test12= 1.57D-14 6.67D-09 XBig12= 2.13D-11 1.35D-06.
      3 vectors produced by pass  8 Test12= 1.57D-14 6.67D-09 XBig12= 1.19D-13 7.90D-08.
 InvSVY:  IOpt=1 It=  1 EMax= 2.22D-15
 Solved reduced A of dimension   114 with    15 vectors.
 Isotropic polarizability for W=    0.000000       32.92 Bohr**3.
 End of Minotr F.D. properties file   721 does not exist.
 End of Minotr F.D. properties file   722 does not exist.
 End of Minotr F.D. properties file   788 does not exist.

 **********************************************************************

            Population analysis using the SCF Density.

 **********************************************************************

 Orbital symmetries:
       Occupied  (A') (A') (A') (A") (A') (A') (A') (A') (A") (A')
                 (A') (A") (A') (A') (A') (A") (A') (A") (A') (A')
                 (A") (A") (A') (A') (A")
       Virtual   (A') (A') (A') (A') (A") (A') (A') (A") (A') (A")
                 (A") (A') (A') (A') (A") (A') (A') (A") (A') (A")
                 (A') (A") (A') (A') (A") (A') (A') (A') (A") (A')
                 (A') (A") (A') (A") (A") (A') (A') (A') (A") (A")
                 (A') (A") (A') (A') (A') (A") (A") (A') (A") (A')
                 (A') (A") (A') (A') (A") (A') (A") (A') (A') (A")
                 (A') (A') (A") (A') (A") (A') (A") (A') (A") (A')
                 (A') (A") (A') (A") (A') (A') (A') (A") (A") (A")
                 (A') (A') (A") (A') (A") (A") (A') (A') (A') (A")
                 (A') (A') (A') (A")
 The electronic state is 1-A'.
 Alpha  occ. eigenvalues -- -101.72907 -24.88086 -24.88083 -24.88082 -10.63442
 Alpha  occ. eigenvalues --   -9.62916  -7.37707  -7.36541  -7.36541  -1.44304
 Alpha  occ. eigenvalues --   -1.36671  -1.36670  -1.00752  -0.82416  -0.71992
 Alpha  occ. eigenvalues --   -0.71991  -0.68319  -0.59244  -0.59244  -0.56313
 Alpha  occ. eigenvalues --   -0.56313  -0.53990  -0.52317  -0.44836  -0.44836
 Alpha virt. eigenvalues --    0.03786   0.07113   0.07635   0.08111   0.08111
 Alpha virt. eigenvalues --    0.12452   0.12506   0.12506   0.15868   0.15868
 Alpha virt. eigenvalues --    0.19210   0.19210   0.19556   0.23822   0.23822
 Alpha virt. eigenvalues --    0.24120   0.26262   0.26950   0.26950   0.28182
 Alpha virt. eigenvalues --    0.29997   0.29997   0.31526   0.37955   0.37955
 Alpha virt. eigenvalues --    0.39502   0.40274   0.41453   0.43046   0.43046
 Alpha virt. eigenvalues --    0.49529   0.49533   0.52374   0.52374   0.65127
 Alpha virt. eigenvalues --    0.65128   0.65940   0.74376   0.74376   0.77989
 Alpha virt. eigenvalues --    0.78446   0.79859   0.79860   0.80596   0.82875
 Alpha virt. eigenvalues --    0.82875   0.85195   0.85198   0.85293   0.85859
 Alpha virt. eigenvalues --    0.95582   0.95583   0.97895   0.98341   0.98341
 Alpha virt. eigenvalues --    1.05560   1.05560   1.12227   1.17165   1.17165
 Alpha virt. eigenvalues --    1.35221   1.43765   1.43765   1.52162   1.63129
 Alpha virt. eigenvalues --    1.68448   1.68449   1.80190   1.95712   1.95712
 Alpha virt. eigenvalues --    2.01337   2.04177   2.04178   2.05198   2.05198
 Alpha virt. eigenvalues --    2.19703   2.70669   2.70671   2.74068   2.81281
 Alpha virt. eigenvalues --    2.82907   2.83038   2.83039   2.84723   2.84723
 Alpha virt. eigenvalues --    2.89454   2.89456   2.92027   3.03175   3.21540
 Alpha virt. eigenvalues --    3.21541   3.48672   3.57542   3.57542
          Condensed to atoms (all electrons):
               1          2          3          4          5
     1  C    3.986125  -0.178675   0.378451  -0.178689  -0.178689
     2  F   -0.178675  10.037923  -0.106850  -0.087743  -0.087743
     3  Cl   0.378451  -0.106850  17.382800  -0.106847  -0.106847
     4  F   -0.178689  -0.087743  -0.106847  10.037962  -0.087754
     5  F   -0.178689  -0.087743  -0.106847  -0.087754  10.037962
 Mulliken charges:
               1
     1  C    2.171478
     2  F   -0.576912
     3  Cl  -0.440706
     4  F   -0.576930
     5  F   -0.576930
 Sum of Mulliken charges =  -0.00000
 Mulliken charges with hydrogens summed into heavy atoms:
               1
     1  C    2.171478
     2  F   -0.576912
     3  Cl  -0.440706
     4  F   -0.576930
     5  F   -0.576930
 APT charges:
               1
     1  C    1.862600
     2  F   -0.538928
     3  Cl  -0.245985
     4  F   -0.538844
     5  F   -0.538844
 Sum of APT charges =  -0.00000
 APT charges with hydrogens summed into heavy atoms:
               1
     1  C    1.862600
     2  F   -0.538928
     3  Cl  -0.245985
     4  F   -0.538844
     5  F   -0.538844
 Electronic spatial extent (au):  <R**2>=            427.3959
 Charge=             -0.0000 electrons
 Dipole moment (field-independent basis, Debye):
    X=             -0.5872    Y=              0.0001    Z=              0.0000  Tot=              0.5872
 Quadrupole moment (field-independent basis, Debye-Ang):
   XX=            -31.7374   YY=            -33.9427   ZZ=            -33.9426
   XY=             -0.0001   XZ=              0.0000   YZ=              0.0000
 Traceless Quadrupole moment (field-independent basis, Debye-Ang):
   XX=              1.4702   YY=             -0.7351   ZZ=             -0.7351
   XY=             -0.0001   XZ=              0.0000   YZ=              0.0000
 Octapole moment (field-independent basis, Debye-Ang**2):
  XXX=              4.6661  YYY=             -0.5032  ZZZ=              0.0000  XYY=              3.5366
  XXY=             -0.0000  XXZ=              0.0000  XZZ=              3.5368  YZZ=              0.5034
  YYZ=             -0.0000  XYZ=             -0.0000
 Hexadecapole moment (field-independent basis, Debye-Ang**3):
 XXXX=           -220.5559 YYYY=           -103.2893 ZZZZ=           -103.2887 XXXY=             -0.0003
 XXXZ=             -0.0000 YYYX=              0.2132 YYYZ=              0.0000 ZZZX=             -0.0000
 ZZZY=              0.0000 XXYY=            -58.5759 XXZZ=            -58.5755 YYZZ=            -34.4298
 XXYZ=              0.0000 YYXZ=              0.0000 ZZXY=             -0.2133
 N-N= 2.431944082082D+02 E-N=-2.383447950622D+03  KE= 7.959746625973D+02
 Symmetry A'   KE= 6.417265388820D+02
 Symmetry A"   KE= 1.542481237153D+02
  Exact polarizability:      38.009       0.002      30.375       0.000      -0.000      30.373
 Approx polarizability:      40.573      -0.000      33.784       0.000      -0.000      33.784
 Calling FoFJK, ICntrl=    100127 FMM=F ISym2X=1 I1Cent= 0 IOpClX= 0 NMat=1 NMatS=1 NMatT=0.
 ***** Axes restored to original set *****
 -------------------------------------------------------------------
 Center     Atomic                   Forces (Hartrees/Bohr)
 Number     Number              X              Y              Z
 -------------------------------------------------------------------
      1        6          -0.015112466    0.000000000    0.005332736
      2        9          -0.006135460   -0.000000000   -0.048385137
      3       17          -0.014218493    0.000000000    0.005025404
      4        9           0.017733210   -0.041306191    0.019013498
      5        9           0.017733210    0.041306191    0.019013498
 -------------------------------------------------------------------
 Cartesian Forces:  Max     0.048385137 RMS     0.022549757
 -----------------------------------------------------------------------------------------------
                       Internal Coordinate Forces (Hartree/Bohr or radian)
  Cent   Atom   N1       Length/X         N2         Alpha/Y        N3         Beta/Z          J
 -----------------------------------------------------------------------------------------------
      1  C 
      2  F        1  -0.048385(     1)
      3  Cl       1  -0.015080(     2)      2   0.000005(     5)
      4  F        1  -0.048424(     3)      2  -0.007953(     6)      3  -0.013035(     8)     0
      5  F        1  -0.048424(     4)      2  -0.007953(     7)      3   0.013035(     9)     0
 -----------------------------------------------------------------------------------------------
 Internal  Forces:  Max     0.048423704 RMS     0.029296539

 GradGradGradGradGradGradGradGradGradGradGradGradGradGradGradGradGradGrad
 Berny optimization.
 Search for a local minimum.
 Step number   1 out of a maximum of  100
 All quantities printed in internal units (Hartrees-Bohrs-Radians)
 Second derivative matrix not updated -- analytic derivatives used.
 The second derivative matrix:
                          B1        B2        A2        B3        A3
           B1           0.27684
           B2           0.03344   0.21078
           A2           0.06596   0.00003   0.39442
           B3           0.04008   0.03343  -0.03299   0.27673
           A3           0.06168  -0.03072   0.11406  -0.00135   0.41667
           D3           0.00273  -0.05012   0.06701  -0.00218  -0.00257
           B4           0.04008   0.03343  -0.03299   0.04003  -0.02831
           A4           0.06168  -0.03072   0.11406  -0.02831   0.11315
           D4          -0.00273   0.05012  -0.06701  -0.05161   0.06952
                          D3        B4        A4        D4
           D3           0.37531
           B4           0.05161   0.27673
           A4          -0.06952  -0.00135   0.41667
           D4          -0.20150   0.00218   0.00257   0.37531
 ITU=  0
     Eigenvalues ---    0.11565   0.14718   0.19600   0.26631   0.28092
     Eigenvalues ---    0.33207   0.37702   0.63060   0.67371
 RFO step:  Lambda=-1.90476677D-02 EMin= 1.15654419D-01
 Linear search not attempted -- first point.
 Variable       Old X    -DE/DX   Delta X   Delta X   Delta X     New X
                                 (Linear)    (Quad)   (Total)
    B1        2.61069  -0.04839   0.00000  -0.12424  -0.12424   2.48646
    B2        3.35991  -0.01508   0.00000  -0.02158  -0.02158   3.33834
    A2        1.91063   0.00001   0.00000   0.01222   0.01222   1.92286
    B3        2.61069  -0.04842   0.00000  -0.12487  -0.12487   2.48583
    A3        1.91063  -0.00795   0.00000  -0.01309  -0.01309   1.89754
    D3        4.18879  -0.01303   0.00000  -0.01572  -0.01572   4.17307
    B4        2.61069  -0.04842   0.00000  -0.12487  -0.12487   2.48583
    A4        1.91063  -0.00795   0.00000  -0.01309  -0.01309   1.89754
    D4        2.09440   0.01303   0.00000   0.01572   0.01572   2.11012
         Item               Value     Threshold  Converged?
 Maximum Force            0.048424     0.000002     NO 
 RMS     Force            0.029297     0.000001     NO 
 Maximum Displacement     0.124867     0.000006     NO 
 RMS     Displacement     0.073083     0.000004     NO 
 Predicted change in Energy=-9.981639D-03
 GradGradGradGradGradGradGradGradGradGradGradGradGradGradGradGradGradGrad

 ---------------------------------------------------------------------------------------------------
                            Z-MATRIX (ANGSTROMS AND DEGREES)
   CD    Cent   Atom    N1       Length/X        N2       Alpha/Y        N3        Beta/Z          J
 ---------------------------------------------------------------------------------------------------
      1      1  C 
      2      2  F        1   1.315778(     1)
      3      3  Cl       1   1.766573(     2)      2  110.172(     5)
      4      4  F        1   1.315443(     3)      2  108.721(     6)      3  239.099(     8)      0
      5      5  F        1   1.315443(     4)      2  108.721(     7)      3  120.901(     9)      0
 ---------------------------------------------------------------------------------------------------
                         Z-Matrix orientation:                         
 ---------------------------------------------------------------------
 Center     Atomic      Atomic             Coordinates (Angstroms)
 Number     Number       Type             X           Y           Z
 ---------------------------------------------------------------------
      1          6           0        0.000000    0.000000    0.000000
      2          9           0        0.000000    0.000000    1.315778
      3         17           0        1.658219    0.000000   -0.609170
      4          9           0       -0.639809    1.069007   -0.422209
      5          9           0       -0.639809   -1.069007   -0.422209
 ---------------------------------------------------------------------
                    Distance matrix (angstroms):
                    1          2          3          4          5
     1  C    0.000000
     2  F    1.315778   0.000000
     3  Cl   1.766573   2.540692   0.000000
     4  F    1.315443   2.138394   2.541390   0.000000
     5  F    1.315443   2.138394   2.541390   2.138013   0.000000
 Stoichiometry    CClF3
 Framework group  CS[SG(CClF),X(F2)]
 Deg. of freedom     6
 Full point group                 CS      NOp   2
 Largest Abelian subgroup         CS      NOp   2
 Largest concise Abelian subgroup CS      NOp   2
                         Standard orientation:                         
 ---------------------------------------------------------------------
 Center     Atomic      Atomic             Coordinates (Angstroms)
 Number     Number       Type             X           Y           Z
 ---------------------------------------------------------------------
      1          6           0        0.355174   -0.000455    0.000000
      2          9           0        0.809731    1.234311    0.000000
      3         17           0       -1.411399    0.000740   -0.000000
      4          9           0        0.809731   -0.617702    1.069007
      5          9           0        0.809731   -0.617702   -1.069007
 ---------------------------------------------------------------------
 Rotational constants (GHZ):           5.8180340           3.3258654           3.3254145
 Basis read from rwf:  (5D, 7F)
 There are    82 symmetry adapted cartesian basis functions of A'  symmetry.
 There are    47 symmetry adapted cartesian basis functions of A"  symmetry.
 There are    74 symmetry adapted basis functions of A'  symmetry.
 There are    45 symmetry adapted basis functions of A"  symmetry.
   119 basis functions,   235 primitive gaussians,   129 cartesian basis functions
    25 alpha electrons       25 beta electrons
       nuclear repulsion energy       251.4389231193 Hartrees.
 NAtoms=    5 NActive=    5 NUniq=    4 SFac= 1.56D+00 NAtFMM=   60 NAOKFM=F Big=F
 Integral buffers will be    131072 words long.
 Raffenetti 2 integral format.
 Two-electron integral symmetry is turned on.
 Nuclear repulsion after empirical dispersion term =      251.4385043247 Hartrees.
 One-electron integrals computed using PRISM.
 NBasis=   119 RedAO= T EigKep=  1.34D-03  NBF=    74    45
 NBsUse=   119 1.00D-06 EigRej= -1.00D+00 NBFU=    74    45
 Initial guess from the checkpoint file:  "checkpoint.chk"
 B after Tr=    -0.000000   -0.000000   -0.000000
         Rot=    1.000000    0.000000   -0.000000    0.000180 Ang=   0.02 deg.
 Initial guess orbital symmetries:
       Occupied  (A') (A') (A') (A") (A') (A') (A') (A') (A") (A')
                 (A') (A") (A') (A') (A') (A") (A') (A") (A') (A')
                 (A") (A") (A') (A') (A")
       Virtual   (A') (A') (A') (A') (A") (A') (A') (A") (A') (A")
                 (A") (A') (A') (A') (A") (A') (A') (A") (A') (A")
                 (A') (A") (A') (A') (A") (A') (A') (A') (A") (A')
                 (A') (A") (A') (A") (A") (A') (A') (A') (A") (A")
                 (A') (A") (A') (A') (A') (A") (A") (A') (A") (A')
                 (A') (A") (A') (A') (A") (A') (A") (A') (A') (A")
                 (A') (A') (A") (A') (A") (A') (A") (A') (A") (A')
                 (A') (A") (A') (A") (A') (A') (A') (A") (A") (A")
                 (A') (A') (A") (A') (A") (A") (A') (A') (A') (A")
                 (A') (A') (A') (A")
 ExpMin= 3.35D-02 ExpMax= 6.35D+04 ExpMxC= 2.17D+03 IAcc=3 IRadAn=         5 AccDes= 0.00D+00
 Harris functional with IExCor= 4639 and IRadAn=       5 diagonalized for initial guess.
 HarFok:  IExCor= 4639 AccDes= 0.00D+00 IRadAn=         5 IDoV= 1 UseB2=F ITyADJ=14
 ICtDFT=  3500011 ScaDFX=  1.000000  1.000000  1.000000  1.000000
 FoFCou: FMM=F IPFlag=           0 FMFlag=      100000 FMFlg1=           0
         NFxFlg=           0 DoJE=T BraDBF=F KetDBF=T FulRan=T
         wScrn=  0.000000 ICntrl=       500 IOpCl=  0 I1Cent=   200000004 NGrid=           0
         NMat0=    1 NMatS0=      1 NMatT0=    0 NMatD0=    1 NMtDS0=    0 NMtDT0=    0
 Petite list used in FoFCou.
 Keep R1 ints in memory in symmetry-blocked form, NReq=76615628.
 Requested convergence on RMS density matrix=1.00D-08 within 128 cycles.
 Requested convergence on MAX density matrix=1.00D-06.
 Requested convergence on             energy=1.00D-06.
 No special actions if energy rises.
 SCF Done:  E(RwB97XD) =  -797.690868002     A.U. after   10 cycles
            NFock= 10  Conv=0.45D-08     -V/T= 2.0015
 DoSCS=F DFT=T ScalE2(SS,OS)=  1.000000  1.000000
 Range of M.O.s used for correlation:     1   119
 NBasis=   119 NAE=    25 NBE=    25 NFC=     0 NFV=     0
 NROrb=    119 NOA=    25 NOB=    25 NVA=    94 NVB=    94
 Symmetrizing basis deriv contribution to polar:
 IMax=3 JMax=2 DiffMx= 0.00D+00
 G2DrvN: will do     6 centers at a time, making    1 passes.
 Calling FoFCou, ICntrl=  3107 FMM=F I1Cent=   0 AccDes= 0.00D+00.
 End of G2Drv F.D. properties file   721 does not exist.
 End of G2Drv F.D. properties file   722 does not exist.
 End of G2Drv F.D. properties file   788 does not exist.
          IDoAtm=11111
          Differentiating once with respect to electric field.
                with respect to dipole field.
          Differentiating once with respect to nuclear coordinates.
 Keep R1 ints in memory in symmetry-blocked form, NReq=76618147.
          There are    15 degrees of freedom in the 1st order CPHF.  IDoFFX=4 NUNeed=    15.
     15 vectors produced by pass  0 Test12= 1.57D-14 6.67D-09 XBig12= 1.35D+01 2.13D+00.
 AX will form    15 AO Fock derivatives at one time.
     15 vectors produced by pass  1 Test12= 1.57D-14 6.67D-09 XBig12= 1.68D+00 3.16D-01.
     15 vectors produced by pass  2 Test12= 1.57D-14 6.67D-09 XBig12= 1.33D-01 7.94D-02.
     15 vectors produced by pass  3 Test12= 1.57D-14 6.67D-09 XBig12= 3.78D-03 1.39D-02.
     15 vectors produced by pass  4 Test12= 1.57D-14 6.67D-09 XBig12= 3.95D-05 1.71D-03.
     15 vectors produced by pass  5 Test12= 1.57D-14 6.67D-09 XBig12= 2.74D-07 1.77D-04.
     15 vectors produced by pass  6 Test12= 1.57D-14 6.67D-09 XBig12= 1.63D-09 1.39D-05.
      4 vectors produced by pass  7 Test12= 1.57D-14 6.67D-09 XBig12= 1.30D-11 8.07D-07.
      3 vectors produced by pass  8 Test12= 1.57D-14 6.67D-09 XBig12= 7.66D-14 6.77D-08.
 InvSVY:  IOpt=1 It=  1 EMax= 6.77D-16
 Solved reduced A of dimension   112 with    15 vectors.
 Isotropic polarizability for W=    0.000000       31.57 Bohr**3.
 End of Minotr F.D. properties file   721 does not exist.
 End of Minotr F.D. properties file   722 does not exist.
 End of Minotr F.D. properties file   788 does not exist.
 Calling FoFJK, ICntrl=    100127 FMM=F ISym2X=1 I1Cent= 0 IOpClX= 0 NMat=1 NMatS=1 NMatT=0.
 ***** Axes restored to original set *****
 -------------------------------------------------------------------
 Center     Atomic                   Forces (Hartrees/Bohr)
 Number     Number              X              Y              Z
 -------------------------------------------------------------------
      1        6           0.005764821   -0.000000000   -0.001853473
      2        9           0.001344299   -0.000000000    0.010272428
      3       17           0.000586617    0.000000000   -0.000299051
      4        9          -0.003847869    0.008920911   -0.004059953
      5        9          -0.003847869   -0.008920911   -0.004059953
 -------------------------------------------------------------------
 Cartesian Forces:  Max     0.010272428 RMS     0.004940823
 -----------------------------------------------------------------------------------------------
                       Internal Coordinate Forces (Hartree/Bohr or radian)
  Cent   Atom   N1       Length/X         N2         Alpha/Y        N3         Beta/Z          J
 -----------------------------------------------------------------------------------------------
      1  C 
      2  F        1   0.010272(     1)
      3  Cl       1   0.000654(     2)      2   0.000262(     5)
      4  F        1   0.010424(     3)      2   0.001874(     6)      3   0.003013(     8)     0
      5  F        1   0.010424(     4)      2   0.001874(     7)      3  -0.003013(     9)     0
 -----------------------------------------------------------------------------------------------
 Internal  Forces:  Max     0.010424290 RMS     0.006222990

 GradGradGradGradGradGradGradGradGradGradGradGradGradGradGradGradGradGrad
 Berny optimization.
 Search for a local minimum.
 Step number   2 out of a maximum of  100
 All quantities printed in internal units (Hartrees-Bohrs-Radians)
 Second derivative matrix not updated -- analytic derivatives used.
 DE= -8.39D-03 DEPred=-9.98D-03 R= 8.40D-01
 TightC=F SS=  1.41D+00  RLast= 2.19D-01 DXNew= 5.0454D-01 6.5774D-01
 Trust test= 8.40D-01 RLast= 2.19D-01 DXMaxT set to 5.05D-01
 The second derivative matrix:
                          B1        B2        A2        B3        A3
           B1           0.45317
           B2           0.03872   0.23757
           A2           0.07188   0.00023   0.42457
           B3           0.05736   0.03865  -0.03589   0.45406
           A3           0.08949  -0.03678   0.12277   0.01127   0.51666
           D3           0.00285  -0.05822   0.07097   0.01792  -0.01408
           B4           0.05736   0.03865  -0.03589   0.05737  -0.03970
           A4           0.08949  -0.03678   0.12277  -0.03970   0.14138
           D4          -0.00285   0.05822  -0.07097  -0.07618   0.08902
                          D3        B4        A4        D4
           D3           0.44832
           B4           0.07618   0.45406
           A4          -0.08902   0.01127   0.51666
           D4          -0.26270  -0.01792   0.01408   0.44832
 ITU=  1  0
     Eigenvalues ---    0.13932   0.17399   0.29406   0.36114   0.38018
     Eigenvalues ---    0.43809   0.56519   0.76189   0.83952
 RFO step:  Lambda=-1.73785390D-05 EMin= 1.39319373D-01
 Quintic linear search produced a step of -0.14513.
 Variable       Old X    -DE/DX   Delta X   Delta X   Delta X     New X
                                 (Linear)    (Quad)   (Total)
    B1        2.48646   0.01027   0.01803   0.00045   0.01848   2.50494
    B2        3.33834   0.00065   0.00313  -0.00889  -0.00576   3.33258
    A2        1.92286   0.00026  -0.00177   0.00144  -0.00034   1.92252
    B3        2.48583   0.01042   0.01812   0.00098   0.01910   2.50493
    A3        1.89754   0.00187   0.00190  -0.00045   0.00145   1.89899
    D3        4.17307   0.00301   0.00228  -0.00042   0.00186   4.17493
    B4        2.48583   0.01042   0.01812   0.00098   0.01910   2.50493
    A4        1.89754   0.00187   0.00190  -0.00045   0.00145   1.89899
    D4        2.11012  -0.00301  -0.00228   0.00042  -0.00186   2.10826
         Item               Value     Threshold  Converged?
 Maximum Force            0.010424     0.000002     NO 
 RMS     Force            0.006223     0.000001     NO 
 Maximum Displacement     0.019104     0.000006     NO 
 RMS     Displacement     0.011134     0.000004     NO 
 Predicted change in Energy=-2.899859D-04
 GradGradGradGradGradGradGradGradGradGradGradGradGradGradGradGradGradGrad

 ---------------------------------------------------------------------------------------------------
                            Z-MATRIX (ANGSTROMS AND DEGREES)
   CD    Cent   Atom    N1       Length/X        N2       Alpha/Y        N3        Beta/Z          J
 ---------------------------------------------------------------------------------------------------
      1      1  C 
      2      2  F        1   1.325555(     1)
      3      3  Cl       1   1.763524(     2)      2  110.152(     5)
      4      4  F        1   1.325553(     3)      2  108.804(     6)      3  239.206(     8)      0
      5      5  F        1   1.325553(     4)      2  108.804(     7)      3  120.794(     9)      0
 ---------------------------------------------------------------------------------------------------
                         Z-Matrix orientation:                         
 ---------------------------------------------------------------------
 Center     Atomic      Atomic             Coordinates (Angstroms)
 Number     Number       Type             X           Y           Z
 ---------------------------------------------------------------------
      1          6           0        0.000000    0.000000    0.000000
      2          9           0        0.000000    0.000000    1.325555
      3         17           0        1.655562    0.000000   -0.607560
      4          9           0       -0.642405    1.077889   -0.427272
      5          9           0       -0.642405   -1.077889   -0.427272
 ---------------------------------------------------------------------
                    Distance matrix (angstroms):
                    1          2          3          4          5
     1  C    0.000000
     2  F    1.325555   0.000000
     3  Cl   1.763524   2.545156   0.000000
     4  F    1.325553   2.155674   2.544603   0.000000
     5  F    1.325553   2.155674   2.544603   2.155778   0.000000
 Stoichiometry    CClF3
 Framework group  C1[X(CClF3)]
 Deg. of freedom     9
 Full point group                 C1      NOp   1
 Omega: Change in point group or standard orientation.

 Old FWG=CS   [SG(C1Cl1F1),X(F2)]
 New FWG=C01  [X(C1Cl1F3)]
 Largest Abelian subgroup         C1      NOp   1
 Largest concise Abelian subgroup C1      NOp   1
                         Standard orientation:                         
 ---------------------------------------------------------------------
 Center     Atomic      Atomic             Coordinates (Angstroms)
 Number     Number       Type             X           Y           Z
 ---------------------------------------------------------------------
      1          6           0        0.353281    0.000000    0.000020
      2          9           0        0.810176   -0.000001    1.244344
      3         17           0       -1.410242    0.000000    0.000334
      4          9           0        0.809047   -1.077889   -0.622494
      5          9           0        0.809047    1.077889   -0.622493
 ---------------------------------------------------------------------
 Rotational constants (GHZ):           5.7242686           3.3136469           3.3135234
 Basis read from rwf:  (5D, 7F)
 There are   129 symmetry adapted cartesian basis functions of A   symmetry.
 There are   119 symmetry adapted basis functions of A   symmetry.
   119 basis functions,   235 primitive gaussians,   129 cartesian basis functions
    25 alpha electrons       25 beta electrons
       nuclear repulsion energy       250.3772889849 Hartrees.
 NAtoms=    5 NActive=    5 NUniq=    5 SFac= 1.00D+00 NAtFMM=   60 NAOKFM=F Big=F
 Integral buffers will be    131072 words long.
 Raffenetti 2 integral format.
 Two-electron integral symmetry is turned on.
 Nuclear repulsion after empirical dispersion term =      250.3768603636 Hartrees.
 One-electron integrals computed using PRISM.
 NBasis=   119 RedAO= T EigKep=  1.35D-03  NBF=   119
 NBsUse=   119 1.00D-06 EigRej= -1.00D+00 NBFU=   119
 Initial guess from the checkpoint file:  "checkpoint.chk"
 B after Tr=    -0.000000    0.000000    0.000000
         Rot=    0.707107   -0.707107    0.000007   -0.000007 Ang= -90.00 deg.
 Keep R1 ints in memory in canonical form, NReq=55674054.
 Requested convergence on RMS density matrix=1.00D-08 within 128 cycles.
 Requested convergence on MAX density matrix=1.00D-06.
 Requested convergence on             energy=1.00D-06.
 No special actions if energy rises.
 SCF Done:  E(RwB97XD) =  -797.691164968     A.U. after    9 cycles
            NFock=  9  Conv=0.55D-08     -V/T= 2.0016
 DoSCS=F DFT=T ScalE2(SS,OS)=  1.000000  1.000000
 Range of M.O.s used for correlation:     1   119
 NBasis=   119 NAE=    25 NBE=    25 NFC=     0 NFV=     0
 NROrb=    119 NOA=    25 NOB=    25 NVA=    94 NVB=    94
 Symmetrizing basis deriv contribution to polar:
 IMax=3 JMax=2 DiffMx= 0.00D+00
 G2DrvN: will do     6 centers at a time, making    1 passes.
 Calling FoFCou, ICntrl=  3107 FMM=F I1Cent=   0 AccDes= 0.00D+00.
 End of G2Drv F.D. properties file   721 does not exist.
 End of G2Drv F.D. properties file   722 does not exist.
 End of G2Drv F.D. properties file   788 does not exist.
          IDoAtm=11111
          Differentiating once with respect to electric field.
                with respect to dipole field.
          Differentiating once with respect to nuclear coordinates.
 Keep R1 ints in memory in canonical form, NReq=55664968.
          There are    18 degrees of freedom in the 1st order CPHF.  IDoFFX=6 NUNeed=     3.
     15 vectors produced by pass  0 Test12= 1.31D-14 5.56D-09 XBig12= 1.36D+01 2.11D+00.
 AX will form    15 AO Fock derivatives at one time.
     15 vectors produced by pass  1 Test12= 1.31D-14 5.56D-09 XBig12= 1.69D+00 3.21D-01.
     15 vectors produced by pass  2 Test12= 1.31D-14 5.56D-09 XBig12= 1.41D-01 7.67D-02.
     15 vectors produced by pass  3 Test12= 1.31D-14 5.56D-09 XBig12= 3.80D-03 1.41D-02.
     15 vectors produced by pass  4 Test12= 1.31D-14 5.56D-09 XBig12= 4.32D-05 1.68D-03.
     15 vectors produced by pass  5 Test12= 1.31D-14 5.56D-09 XBig12= 2.76D-07 1.65D-04.
     15 vectors produced by pass  6 Test12= 1.31D-14 5.56D-09 XBig12= 1.68D-09 1.29D-05.
      4 vectors produced by pass  7 Test12= 1.31D-14 5.56D-09 XBig12= 1.31D-11 7.83D-07.
      3 vectors produced by pass  8 Test12= 1.31D-14 5.56D-09 XBig12= 7.60D-14 6.61D-08.
 InvSVY:  IOpt=1 It=  1 EMax= 1.11D-15
 Solved reduced A of dimension   112 with    15 vectors.
 Isotropic polarizability for W=    0.000000       31.69 Bohr**3.
 End of Minotr F.D. properties file   721 does not exist.
 End of Minotr F.D. properties file   722 does not exist.
 End of Minotr F.D. properties file   788 does not exist.
 Calling FoFJK, ICntrl=    100127 FMM=F ISym2X=0 I1Cent= 0 IOpClX= 0 NMat=1 NMatS=1 NMatT=0.
 ***** Axes restored to original set *****
 -------------------------------------------------------------------
 Center     Atomic                   Forces (Hartrees/Bohr)
 Number     Number              X              Y              Z
 -------------------------------------------------------------------
      1        6           0.000100292    0.000000000   -0.000081597
      2        9          -0.000059188   -0.000000000    0.000033736
      3       17           0.000171683    0.000000000   -0.000008998
      4        9          -0.000106393   -0.000005912    0.000028429
      5        9          -0.000106393    0.000005912    0.000028429
 -------------------------------------------------------------------
 Cartesian Forces:  Max     0.000171683 RMS     0.000070823
 -----------------------------------------------------------------------------------------------
                       Internal Coordinate Forces (Hartree/Bohr or radian)
  Cent   Atom   N1       Length/X         N2         Alpha/Y        N3         Beta/Z          J
 -----------------------------------------------------------------------------------------------
      1  C 
      2  F        1   0.000034(     1)
      3  Cl       1   0.000164(     2)      2  -0.000169(     5)
      4  F        1   0.000038(     3)      2  -0.000107(     6)      3  -0.000224(     8)     0
      5  F        1   0.000038(     4)      2  -0.000107(     7)      3   0.000224(     9)     0
 -----------------------------------------------------------------------------------------------
 Internal  Forces:  Max     0.000223891 RMS     0.000142507

 GradGradGradGradGradGradGradGradGradGradGradGradGradGradGradGradGradGrad
 Berny optimization.
 Search for a local minimum.
 Step number   3 out of a maximum of  100
 All quantities printed in internal units (Hartrees-Bohrs-Radians)
 Second derivative matrix not updated -- analytic derivatives used.
 DE= -2.97D-04 DEPred=-2.90D-04 R= 1.02D+00
 TightC=F SS=  1.41D+00  RLast= 3.34D-02 DXNew= 8.4853D-01 1.0021D-01
 Trust test= 1.02D+00 RLast= 3.34D-02 DXMaxT set to 5.05D-01
 The second derivative matrix:
                          B1        B2        A2        B3        A3
           B1           0.42287
           B2           0.03819   0.23881
           A2           0.07147  -0.00011   0.42215
           B3           0.05440   0.03824  -0.03583   0.42305
           A3           0.08473  -0.03620   0.12247   0.00866   0.50054
           D3           0.00281  -0.05740   0.07081   0.01375  -0.01110
           B4           0.05440   0.03824  -0.03583   0.05432  -0.03767
           A4           0.08473  -0.03620   0.12247  -0.03767   0.13627
           D4          -0.00281   0.05740  -0.07081  -0.07186   0.08553
                          D3        B4        A4        D4
           D3           0.43727
           B4           0.07186   0.42305
           A4          -0.08553   0.00866   0.50054
           D4          -0.25227  -0.01375   0.01110   0.43727
 ITU=  1  1  0
     Eigenvalues ---    0.13658   0.17311   0.28354   0.34389   0.36788
     Eigenvalues ---    0.41353   0.53584   0.74149   0.80967
 RFO step:  Lambda=-2.86921396D-07 EMin= 1.36575938D-01
 Quintic linear search produced a step of  0.00005.
 Variable       Old X    -DE/DX   Delta X   Delta X   Delta X     New X
                                 (Linear)    (Quad)   (Total)
    B1        2.50494   0.00003   0.00000   0.00013   0.00013   2.50507
    B2        3.33258   0.00016  -0.00000   0.00046   0.00046   3.33304
    A2        1.92252  -0.00017  -0.00000  -0.00022  -0.00022   1.92230
    B3        2.50493   0.00004   0.00000   0.00005   0.00005   2.50499
    A3        1.89899  -0.00011   0.00000  -0.00016  -0.00016   1.89883
    D3        4.17493  -0.00022   0.00000  -0.00029  -0.00029   4.17463
    B4        2.50493   0.00004   0.00000   0.00005   0.00005   2.50499
    A4        1.89899  -0.00011   0.00000  -0.00016  -0.00016   1.89883
    D4        2.10826   0.00022  -0.00000   0.00029   0.00029   2.10855
         Item               Value     Threshold  Converged?
 Maximum Force            0.000224     0.000002     NO 
 RMS     Force            0.000143     0.000001     NO 
 Maximum Displacement     0.000461     0.000006     NO 
 RMS     Displacement     0.000237     0.000004     NO 
 Predicted change in Energy=-1.434615D-07
 GradGradGradGradGradGradGradGradGradGradGradGradGradGradGradGradGradGrad

 ---------------------------------------------------------------------------------------------------
                            Z-MATRIX (ANGSTROMS AND DEGREES)
   CD    Cent   Atom    N1       Length/X        N2       Alpha/Y        N3        Beta/Z          J
 ---------------------------------------------------------------------------------------------------
      1      1  C 
      2      2  F        1   1.325624(     1)
      3      3  Cl       1   1.763768(     2)      2  110.139(     5)
      4      4  F        1   1.325581(     3)      2  108.795(     6)      3  239.189(     8)      0
      5      5  F        1   1.325581(     4)      2  108.795(     7)      3  120.811(     9)      0
 ---------------------------------------------------------------------------------------------------
                         Z-Matrix orientation:                         
 ---------------------------------------------------------------------
 Center     Atomic      Atomic             Coordinates (Angstroms)
 Number     Number       Type             X           Y           Z
 ---------------------------------------------------------------------
      1          6           0        0.000000    0.000000    0.000000
      2          9           0        0.000000    0.000000    1.325624
      3         17           0        1.655927    0.000000   -0.607275
      4          9           0       -0.642769    1.077782   -0.427082
      5          9           0       -0.642769   -1.077782   -0.427082
 ---------------------------------------------------------------------
                    Distance matrix (angstroms):
                    1          2          3          4          5
     1  C    0.000000
     2  F    1.325624   0.000000
     3  Cl   1.763768   2.545229   0.000000
     4  F    1.325581   2.155630   2.545209   0.000000
     5  F    1.325581   2.155630   2.545209   2.155564   0.000000
 Stoichiometry    CClF3
 Framework group  C1[X(CClF3)]
 Deg. of freedom     9
 Full point group                 C1      NOp   1
 Largest Abelian subgroup         C1      NOp   1
 Largest concise Abelian subgroup C1      NOp   1
                         Standard orientation:                         
 ---------------------------------------------------------------------
 Center     Atomic      Atomic             Coordinates (Angstroms)
 Number     Number       Type             X           Y           Z
 ---------------------------------------------------------------------
      1          6           0        0.353213   -0.000004    0.000000
      2          9           0        0.809636    1.244567    0.000006
      3         17           0       -1.410554    0.000001    0.000000
      4          9           0        0.809634   -0.622288    1.077779
      5          9           0        0.809634   -0.622278   -1.077785
 ---------------------------------------------------------------------
 Rotational constants (GHZ):           5.7248021           3.3126347           3.3125560
 Basis read from rwf:  (5D, 7F)
 There are   129 symmetry adapted cartesian basis functions of A   symmetry.
 There are   119 symmetry adapted basis functions of A   symmetry.
   119 basis functions,   235 primitive gaussians,   129 cartesian basis functions
    25 alpha electrons       25 beta electrons
       nuclear repulsion energy       250.3577512823 Hartrees.
 NAtoms=    5 NActive=    5 NUniq=    5 SFac= 1.00D+00 NAtFMM=   60 NAOKFM=F Big=F
 Integral buffers will be    131072 words long.
 Raffenetti 2 integral format.
 Two-electron integral symmetry is turned on.
 Nuclear repulsion after empirical dispersion term =      250.3573224627 Hartrees.
 One-electron integrals computed using PRISM.
 NBasis=   119 RedAO= T EigKep=  1.35D-03  NBF=   119
 NBsUse=   119 1.00D-06 EigRej= -1.00D+00 NBFU=   119
 Initial guess from the checkpoint file:  "checkpoint.chk"
 B after Tr=     0.000000   -0.000000    0.000000
         Rot=    0.707108    0.707105    0.000122   -0.000122 Ang=  90.00 deg.
 Keep R1 ints in memory in canonical form, NReq=55674054.
 Requested convergence on RMS density matrix=1.00D-08 within 128 cycles.
 Requested convergence on MAX density matrix=1.00D-06.
 Requested convergence on             energy=1.00D-06.
 No special actions if energy rises.
 SCF Done:  E(RwB97XD) =  -797.691165081     A.U. after    7 cycles
            NFock=  7  Conv=0.59D-08     -V/T= 2.0016
 DoSCS=F DFT=T ScalE2(SS,OS)=  1.000000  1.000000
 Range of M.O.s used for correlation:     1   119
 NBasis=   119 NAE=    25 NBE=    25 NFC=     0 NFV=     0
 NROrb=    119 NOA=    25 NOB=    25 NVA=    94 NVB=    94
 Symmetrizing basis deriv contribution to polar:
 IMax=3 JMax=2 DiffMx= 0.00D+00
 G2DrvN: will do     6 centers at a time, making    1 passes.
 Calling FoFCou, ICntrl=  3107 FMM=F I1Cent=   0 AccDes= 0.00D+00.
 End of G2Drv F.D. properties file   721 does not exist.
 End of G2Drv F.D. properties file   722 does not exist.
 End of G2Drv F.D. properties file   788 does not exist.
          IDoAtm=11111
          Differentiating once with respect to electric field.
                with respect to dipole field.
          Differentiating once with respect to nuclear coordinates.
 Keep R1 ints in memory in canonical form, NReq=55664968.
          There are    18 degrees of freedom in the 1st order CPHF.  IDoFFX=6 NUNeed=     3.
     15 vectors produced by pass  0 Test12= 1.31D-14 5.56D-09 XBig12= 1.36D+01 2.12D+00.
 AX will form    15 AO Fock derivatives at one time.
     15 vectors produced by pass  1 Test12= 1.31D-14 5.56D-09 XBig12= 1.69D+00 3.22D-01.
     15 vectors produced by pass  2 Test12= 1.31D-14 5.56D-09 XBig12= 1.41D-01 7.67D-02.
     15 vectors produced by pass  3 Test12= 1.31D-14 5.56D-09 XBig12= 3.80D-03 1.41D-02.
     15 vectors produced by pass  4 Test12= 1.31D-14 5.56D-09 XBig12= 4.33D-05 1.68D-03.
     15 vectors produced by pass  5 Test12= 1.31D-14 5.56D-09 XBig12= 2.76D-07 1.65D-04.
     15 vectors produced by pass  6 Test12= 1.31D-14 5.56D-09 XBig12= 1.68D-09 1.29D-05.
      4 vectors produced by pass  7 Test12= 1.31D-14 5.56D-09 XBig12= 1.31D-11 7.82D-07.
      3 vectors produced by pass  8 Test12= 1.31D-14 5.56D-09 XBig12= 7.61D-14 6.61D-08.
 InvSVY:  IOpt=1 It=  1 EMax= 1.22D-15
 Solved reduced A of dimension   112 with    15 vectors.
 Isotropic polarizability for W=    0.000000       31.70 Bohr**3.
 End of Minotr F.D. properties file   721 does not exist.
 End of Minotr F.D. properties file   722 does not exist.
 End of Minotr F.D. properties file   788 does not exist.
 Calling FoFJK, ICntrl=    100127 FMM=F ISym2X=0 I1Cent= 0 IOpClX= 0 NMat=1 NMatS=1 NMatT=0.
 ***** Axes restored to original set *****
 -------------------------------------------------------------------
 Center     Atomic                   Forces (Hartrees/Bohr)
 Number     Number              X              Y              Z
 -------------------------------------------------------------------
      1        6           0.000030192    0.000000000   -0.000000317
      2        9          -0.000030142   -0.000000001    0.000000009
      3       17           0.000000234   -0.000000000    0.000000149
      4        9          -0.000000142    0.000000053    0.000000079
      5        9          -0.000000142   -0.000000052    0.000000081
 -------------------------------------------------------------------
 Cartesian Forces:  Max     0.000030192 RMS     0.000011016
 -----------------------------------------------------------------------------------------------
                       Internal Coordinate Forces (Hartree/Bohr or radian)
  Cent   Atom   N1       Length/X         N2         Alpha/Y        N3         Beta/Z          J
 -----------------------------------------------------------------------------------------------
      1  C 
      2  F        1   0.000000(     1)
      3  Cl       1   0.000000(     2)      2  -0.000001(     5)
      4  F        1   0.000000(     3)      2  -0.000000(     6)      3  -0.000000(     8)     0
      5  F        1   0.000000(     4)      2  -0.000000(     7)      3   0.000000(     9)     0
 -----------------------------------------------------------------------------------------------
 Internal  Forces:  Max     0.000000733 RMS     0.000000306

 GradGradGradGradGradGradGradGradGradGradGradGradGradGradGradGradGradGrad
 Berny optimization.
 Search for a local minimum.
 Step number   4 out of a maximum of  100
 All quantities printed in internal units (Hartrees-Bohrs-Radians)
 Second derivative matrix not updated -- analytic derivatives used.
 DE= -1.13D-07 DEPred=-1.43D-07 R= 7.90D-01
 Trust test= 7.90D-01 RLast= 7.12D-04 DXMaxT set to 5.05D-01
 The second derivative matrix:
                          B1        B2        A2        B3        A3
           B1           0.42269
           B2           0.03818   0.23846
           A2           0.07146   0.00003   0.42194
           B3           0.05441   0.03817  -0.03577   0.42296
           A3           0.08475  -0.03613   0.12228   0.00875   0.50046
           D3           0.00280  -0.05730   0.07069   0.01395  -0.01126
           B4           0.05441   0.03817  -0.03577   0.05436  -0.03769
           A4           0.08475  -0.03613   0.12228  -0.03769   0.13633
           D4          -0.00280   0.05730  -0.07069  -0.07195   0.08557
                          D3        B4        A4        D4
           D3           0.43728
           B4           0.07195   0.42296
           A4          -0.08557   0.00875   0.50046
           D4          -0.25254  -0.01395   0.01126   0.43728
 ITU=  0  1  1  0
     Eigenvalues ---    0.13645   0.17296   0.28345   0.34385   0.36753
     Eigenvalues ---    0.41349   0.53556   0.74137   0.80982
 RFO step:  Lambda= 0.00000000D+00 EMin= 1.36453373D-01
 Quintic linear search produced a step of  0.00164.
 Variable       Old X    -DE/DX   Delta X   Delta X   Delta X     New X
                                 (Linear)    (Quad)   (Total)
    B1        2.50507   0.00000   0.00000   0.00000   0.00000   2.50507
    B2        3.33304   0.00000   0.00000  -0.00000   0.00000   3.33304
    A2        1.92230  -0.00000  -0.00000  -0.00000  -0.00000   1.92229
    B3        2.50499   0.00000   0.00000  -0.00000  -0.00000   2.50499
    A3        1.89883  -0.00000  -0.00000   0.00000  -0.00000   1.89883
    D3        4.17463  -0.00000  -0.00000   0.00000  -0.00000   4.17463
    B4        2.50499   0.00000   0.00000  -0.00000  -0.00000   2.50499
    A4        1.89883  -0.00000  -0.00000   0.00000  -0.00000   1.89883
    D4        2.10855   0.00000   0.00000  -0.00000   0.00000   2.10855
         Item               Value     Threshold  Converged?
 Maximum Force            0.000001     0.000002     YES
 RMS     Force            0.000000     0.000001     YES
 Maximum Displacement     0.000002     0.000006     YES
 RMS     Displacement     0.000001     0.000004     YES
 Predicted change in Energy=-7.300159D-13
 Optimization completed.
    -- Stationary point found.
                       ----------------------------
                       !   Optimized Parameters   !
                       ! (Angstroms and Degrees)  !
 ----------------------                            ----------------------
 !      Name          Value   Derivative information (Atomic Units)     !
 ------------------------------------------------------------------------
 !       B1          1.3256   -DE/DX =    0.0                           !
 !       B2          1.7638   -DE/DX =    0.0                           !
 !       A2        110.1394   -DE/DX =    0.0                           !
 !       B3          1.3256   -DE/DX =    0.0                           !
 !       A3        108.7951   -DE/DX =    0.0                           !
 !       D3        239.1889   -DE/DX =    0.0                           !
 !       B4          1.3256   -DE/DX =    0.0                           !
 !       A4        108.7951   -DE/DX =    0.0                           !
 !       D4        120.8111   -DE/DX =    0.0                           !
 ------------------------------------------------------------------------
 GradGradGradGradGradGradGradGradGradGradGradGradGradGradGradGradGradGrad

 ---------------------------------------------------------------------------------------------------
                            Z-MATRIX (ANGSTROMS AND DEGREES)
   CD    Cent   Atom    N1       Length/X        N2       Alpha/Y        N3        Beta/Z          J
 ---------------------------------------------------------------------------------------------------
      1      1  C 
      2      2  F        1   1.325624(     1)
      3      3  Cl       1   1.763768(     2)      2  110.139(     5)
      4      4  F        1   1.325581(     3)      2  108.795(     6)      3  239.189(     8)      0
      5      5  F        1   1.325581(     4)      2  108.795(     7)      3  120.811(     9)      0
 ---------------------------------------------------------------------------------------------------
                         Z-Matrix orientation:                         
 ---------------------------------------------------------------------
 Center     Atomic      Atomic             Coordinates (Angstroms)
 Number     Number       Type             X           Y           Z
 ---------------------------------------------------------------------
      1          6           0        0.000000    0.000000    0.000000
      2          9           0        0.000000    0.000000    1.325624
      3         17           0        1.655927    0.000000   -0.607275
      4          9           0       -0.642769    1.077782   -0.427082
      5          9           0       -0.642769   -1.077782   -0.427082
 ---------------------------------------------------------------------
                    Distance matrix (angstroms):
                    1          2          3          4          5
     1  C    0.000000
     2  F    1.325624   0.000000
     3  Cl   1.763768   2.545229   0.000000
     4  F    1.325581   2.155630   2.545209   0.000000
     5  F    1.325581   2.155630   2.545209   2.155564   0.000000
 Stoichiometry    CClF3
 Framework group  C1[X(CClF3)]
 Deg. of freedom     9
 Full point group                 C1      NOp   1
 Largest Abelian subgroup         C1      NOp   1
 Largest concise Abelian subgroup C1      NOp   1
                         Standard orientation:                         
 ---------------------------------------------------------------------
 Center     Atomic      Atomic             Coordinates (Angstroms)
 Number     Number       Type             X           Y           Z
 ---------------------------------------------------------------------
      1          6           0        0.353213   -0.000004    0.000000
      2          9           0        0.809636    1.244567    0.000006
      3         17           0       -1.410554    0.000001    0.000000
      4          9           0        0.809634   -0.622288    1.077779
      5          9           0        0.809634   -0.622278   -1.077785
 ---------------------------------------------------------------------
 Rotational constants (GHZ):           5.7248021           3.3126347           3.3125560

 **********************************************************************

            Population analysis using the SCF Density.

 **********************************************************************

 Orbital symmetries:
       Occupied  (A) (A) (A) (A) (A) (A) (A) (A) (A) (A) (A) (A)
                 (A) (A) (A) (A) (A) (A) (A) (A) (A) (A) (A) (A)
                 (A)
       Virtual   (A) (A) (A) (A) (A) (A) (A) (A) (A) (A) (A) (A)
                 (A) (A) (A) (A) (A) (A) (A) (A) (A) (A) (A) (A)
                 (A) (A) (A) (A) (A) (A) (A) (A) (A) (A) (A) (A)
                 (A) (A) (A) (A) (A) (A) (A) (A) (A) (A) (A) (A)
                 (A) (A) (A) (A) (A) (A) (A) (A) (A) (A) (A) (A)
                 (A) (A) (A) (A) (A) (A) (A) (A) (A) (A) (A) (A)
                 (A) (A) (A) (A) (A) (A) (A) (A) (A) (A) (A) (A)
                 (A) (A) (A) (A) (A) (A) (A) (A) (A) (A)
 The electronic state is 1-A.
 Alpha  occ. eigenvalues -- -101.71981 -24.87947 -24.87943 -24.87943 -10.62186
 Alpha  occ. eigenvalues --   -9.62087  -7.36845  -7.35718  -7.35718  -1.47713
 Alpha  occ. eigenvalues --   -1.38285  -1.38285  -1.00515  -0.82843  -0.73668
 Alpha  occ. eigenvalues --   -0.73668  -0.69825  -0.60255  -0.60255  -0.56640
 Alpha  occ. eigenvalues --   -0.56640  -0.53914  -0.51994  -0.44322  -0.44322
 Alpha virt. eigenvalues --    0.04967   0.07462   0.07684   0.07987   0.07987
 Alpha virt. eigenvalues --    0.12919   0.12919   0.13147   0.17523   0.17523
 Alpha virt. eigenvalues --    0.20534   0.20534   0.23698   0.23760   0.23761
 Alpha virt. eigenvalues --    0.25967   0.26701   0.26701   0.27540   0.28103
 Alpha virt. eigenvalues --    0.30615   0.30615   0.31875   0.39631   0.39632
 Alpha virt. eigenvalues --    0.39784   0.40729   0.42055   0.43215   0.43215
 Alpha virt. eigenvalues --    0.51021   0.51023   0.52528   0.52529   0.65214
 Alpha virt. eigenvalues --    0.65214   0.65735   0.74995   0.74996   0.78393
 Alpha virt. eigenvalues --    0.79378   0.80231   0.80261   0.80261   0.82072
 Alpha virt. eigenvalues --    0.82073   0.83481   0.86091   0.86827   0.86829
 Alpha virt. eigenvalues --    0.97318   0.97319   0.98328   0.98328   0.98686
 Alpha virt. eigenvalues --    1.05939   1.05940   1.12632   1.19564   1.19564
 Alpha virt. eigenvalues --    1.38927   1.44281   1.44281   1.49807   1.70730
 Alpha virt. eigenvalues --    1.70731   1.71115   1.81841   1.95728   1.95729
 Alpha virt. eigenvalues --    2.02485   2.02876   2.02877   2.16973   2.16980
 Alpha virt. eigenvalues --    2.21282   2.70145   2.70146   2.71350   2.79998
 Alpha virt. eigenvalues --    2.82065   2.82066   2.84363   2.84363   2.84843
 Alpha virt. eigenvalues --    2.91036   2.91038   2.94167   3.11378   3.31301
 Alpha virt. eigenvalues --    3.31304   3.58594   3.62126   3.62129
          Condensed to atoms (all electrons):
               1          2          3          4          5
     1  C    4.025068  -0.208891   0.396213  -0.208919  -0.208919
     2  F   -0.208891  10.096808  -0.114546  -0.105520  -0.105520
     3  Cl   0.396213  -0.114546  17.465906  -0.114534  -0.114534
     4  F   -0.208919  -0.105520  -0.114534  10.096811  -0.105533
     5  F   -0.208919  -0.105520  -0.114534  -0.105533  10.096811
 Mulliken charges:
               1
     1  C    2.205448
     2  F   -0.562332
     3  Cl  -0.518505
     4  F   -0.562306
     5  F   -0.562306
 Sum of Mulliken charges =  -0.00000
 Mulliken charges with hydrogens summed into heavy atoms:
               1
     1  C    2.205448
     2  F   -0.562332
     3  Cl  -0.518505
     4  F   -0.562306
     5  F   -0.562306
 APT charges:
               1
     1  C    1.908632
     2  F   -0.546969
     3  Cl  -0.267471
     4  F   -0.547096
     5  F   -0.547096
 Sum of APT charges =  -0.00000
 APT charges with hydrogens summed into heavy atoms:
               1
     1  C    1.908632
     2  F   -0.546969
     3  Cl  -0.267471
     4  F   -0.547096
     5  F   -0.547096
 Electronic spatial extent (au):  <R**2>=            409.7046
 Charge=             -0.0000 electrons
 Dipole moment (field-independent basis, Debye):
    X=             -0.3298    Y=             -0.0001    Z=              0.0000  Tot=              0.3298
 Quadrupole moment (field-independent basis, Debye-Ang):
   XX=            -31.8442   YY=            -33.6414   ZZ=            -33.6410
   XY=             -0.0001   XZ=              0.0000   YZ=              0.0000
 Traceless Quadrupole moment (field-independent basis, Debye-Ang):
   XX=              1.1980   YY=             -0.5992   ZZ=             -0.5988
   XY=             -0.0001   XZ=              0.0000   YZ=              0.0000
 Octapole moment (field-independent basis, Debye-Ang**2):
  XXX=              5.9977  YYY=             -0.5017  ZZZ=              0.0000  XYY=              3.8279
  XXY=             -0.0003  XXZ=              0.0000  XZZ=              3.8283  YZZ=              0.5013
  YYZ=             -0.0000  XYZ=              0.0000
 Hexadecapole moment (field-independent basis, Debye-Ang**3):
 XXXX=           -218.5853 YYYY=            -96.3346 ZZZZ=            -96.3279 XXXY=             -0.0005
 XXXZ=              0.0000 YYYX=              0.1481 YYYZ=              0.0000 ZZZX=             -0.0000
 ZZZY=              0.0000 XXYY=            -56.8098 XXZZ=            -56.8082 YYZZ=            -32.1105
 XXYZ=              0.0000 YYXZ=              0.0000 ZZXY=             -0.1485
 N-N= 2.503573224627D+02 E-N=-2.398040657343D+03  KE= 7.964180314316D+02
  Exact polarizability:      36.925       0.003      29.087      -0.000       0.000      29.082
 Approx polarizability:      39.245      -0.000      32.121      -0.000      -0.000      32.121
 Rotating derivatives to standard orientation.
 Full mass-weighted force constant matrix:
 Low frequencies ---   -0.0029   -0.0014   -0.0013    3.7988    5.7883    6.8303
 Low frequencies ---  348.3207  348.3657  477.1136
 Diagonal vibrational polarizability:
       12.0649773       5.3912827       5.3804876
 Harmonic frequencies (cm**-1), IR intensities (KM/Mole), Raman scattering
 activities (A**4/AMU), depolarization ratios for plane and unpolarized
 incident light, reduced masses (AMU), force constants (mDyne/A),
 and normal coordinates:
                      1                      2                      3
                      A                      A                      A
 Frequencies --    348.3204               348.3655               477.1136
 Red. masses --     20.3488                20.3487                26.1525
 Frc consts  --      1.4546                 1.4550                 3.5076
 IR Inten    --      0.0006                 0.0008                 0.0486
  Atom  AN      X      Y      Z        X      Y      Z        X      Y      Z
     1   6    -0.00  -0.00  -0.22     0.00   0.22  -0.00    -0.05   0.00  -0.00
     2   9    -0.00   0.00  -0.32     0.68  -0.02  -0.00    -0.40   0.15   0.00
     3  17    -0.00   0.00   0.33     0.00  -0.33   0.00     0.67   0.00   0.00
     4   9    -0.59  -0.15  -0.07    -0.34   0.24   0.15    -0.40  -0.08   0.13
     5   9     0.59   0.15  -0.07    -0.34   0.24  -0.15    -0.40  -0.08  -0.13
                      4                      5                      6
                      A                      A                      A
 Frequencies --    559.3724               559.4581               788.8877
 Red. masses --     18.1389                18.1383                17.6711
 Frc consts  --      3.3440                 3.3449                 6.4795
 IR Inten    --      1.4956                 1.4908                36.6942
  Atom  AN      X      Y      Z        X      Y      Z        X      Y      Z
     1   6     0.00   0.38   0.00     0.00   0.00  -0.38     0.50  -0.00  -0.00
     2   9     0.16   0.50  -0.00     0.00   0.00   0.54    -0.00   0.49   0.00
     3  17    -0.00  -0.10  -0.00    -0.00  -0.00   0.10    -0.17   0.00  -0.00
     4   9    -0.08  -0.28  -0.45    -0.14   0.45  -0.24    -0.00  -0.24   0.42
     5   9    -0.08  -0.28   0.45     0.14  -0.45  -0.24    -0.00  -0.24  -0.42
                      7                      8                      9
                      A                      A                      A
 Frequencies --   1110.3577              1233.7272              1234.1083
 Red. masses --     13.4623                13.2148                13.2150
 Frc consts  --      9.7790                11.8508                11.8583
 IR Inten    --    479.7817               297.6434               297.2441
  Atom  AN      X      Y      Z        X      Y      Z        X      Y      Z
     1   6     0.89   0.00   0.00    -0.00   0.91   0.00    -0.00  -0.00   0.91
     2   9    -0.16  -0.21  -0.00    -0.11  -0.32  -0.00     0.00   0.00  -0.05
     3  17    -0.05   0.00  -0.00     0.00  -0.01  -0.00     0.00   0.00  -0.01
     4   9    -0.16   0.10  -0.18     0.06  -0.12   0.11    -0.10   0.11  -0.25
     5   9    -0.16   0.10   0.18     0.06  -0.12  -0.11     0.10  -0.11  -0.25

 -------------------
 - Thermochemistry -
 -------------------
 Temperature   298.150 Kelvin.  Pressure   1.00000 Atm.
 Atom     1 has atomic number  6 and mass  12.00000
 Atom     2 has atomic number  9 and mass  18.99840
 Atom     3 has atomic number 17 and mass  34.96885
 Atom     4 has atomic number  9 and mass  18.99840
 Atom     5 has atomic number  9 and mass  18.99840
 Molecular mass:   103.96406 amu.
 Principal axes and moments of inertia in atomic units:
                           1         2         3
     Eigenvalues --   315.24954 544.80538 544.81833
           X            1.00000  -0.00000   0.00000
           Y            0.00000   1.00000  -0.00000
           Z           -0.00000   0.00000   1.00000
 This molecule is an asymmetric top.
 Rotational symmetry number  1.
 Rotational temperatures (Kelvin)      0.27475     0.15898     0.15898
 Rotational constants (GHZ):           5.72480     3.31263     3.31256
 Zero-point vibrational energy      39833.9 (Joules/Mol)
                                    9.52053 (Kcal/Mol)
 Warning -- explicit consideration of   5 degrees of freedom as
           vibrations may cause significant error
 Vibrational temperatures:    501.16   501.22   686.46   804.81   804.94
          (Kelvin)           1135.03  1597.56  1775.06  1775.61
 
 Zero-point correction=                           0.015172 (Hartree/Particle)
 Thermal correction to Energy=                    0.019475
 Thermal correction to Enthalpy=                  0.020419
 Thermal correction to Gibbs Free Energy=        -0.013001
 Sum of electronic and zero-point Energies=           -797.675993
 Sum of electronic and thermal Energies=              -797.671690
 Sum of electronic and thermal Enthalpies=            -797.670746
 Sum of electronic and thermal Free Energies=         -797.704166
 
                     E (Thermal)             CV                S
                      KCal/Mol        Cal/Mol-Kelvin    Cal/Mol-Kelvin
 Total                   12.221             13.966             70.337
 Electronic               0.000              0.000              0.000
 Translational            0.889              2.981             39.834
 Rotational               0.889              2.981             26.040
 Vibrational             10.443              8.004              4.463
 Vibration     1          0.726              1.579              1.174
 Vibration     2          0.726              1.579              1.174
 Vibration     3          0.834              1.301              0.718
 Vibration     4          0.915              1.119              0.525
 Vibration     5          0.915              1.119              0.525
                       Q            Log10(Q)             Ln(Q)
 Total Bot       0.954632D+06          5.979836         13.769081
 Total V=0       0.908734D+13         12.958437         29.837903
 Vib (Bot)       0.209237D-06         -6.679362        -15.379800
 Vib (Bot)    1  0.530259D+00         -0.275512         -0.634390
 Vib (Bot)    2  0.530175D+00         -0.275581         -0.634548
 Vib (Bot)    3  0.351404D+00         -0.454193         -1.045818
 Vib (Bot)    4  0.278021D+00         -0.555923         -1.280059
 Vib (Bot)    5  0.277955D+00         -0.556026         -1.280296
 Vib (V=0)       0.199177D+01          0.299239          0.689022
 Vib (V=0)    1  0.122882D+01          0.089487          0.206052
 Vib (V=0)    2  0.122876D+01          0.089466          0.206002
 Vib (V=0)    3  0.111113D+01          0.045767          0.105381
 Vib (V=0)    4  0.107210D+01          0.030234          0.069617
 Vib (V=0)    5  0.107207D+01          0.030221          0.069587
 Electronic      0.100000D+01          0.000000          0.000000
 Translational   0.416657D+08          7.619779         17.545189
 Rotational      0.109501D+06          5.039419         11.603692
 ***** Axes restored to original set *****
 -------------------------------------------------------------------
 Center     Atomic                   Forces (Hartrees/Bohr)
 Number     Number              X              Y              Z
 -------------------------------------------------------------------
      1        6           0.000030192    0.000000000   -0.000000317
      2        9          -0.000030142   -0.000000001    0.000000009
      3       17           0.000000234   -0.000000000    0.000000149
      4        9          -0.000000142    0.000000053    0.000000079
      5        9          -0.000000142   -0.000000052    0.000000081
 -------------------------------------------------------------------
 Cartesian Forces:  Max     0.000030192 RMS     0.000011016
 -----------------------------------------------------------------------------------------------
                       Internal Coordinate Forces (Hartree/Bohr or radian)
  Cent   Atom   N1       Length/X         N2         Alpha/Y        N3         Beta/Z          J
 -----------------------------------------------------------------------------------------------
      1  C 
      2  F        1   0.000000(     1)
      3  Cl       1   0.000000(     2)      2  -0.000001(     5)
      4  F        1   0.000000(     3)      2  -0.000000(     6)      3  -0.000000(     8)     0
      5  F        1   0.000000(     4)      2  -0.000000(     7)      3   0.000000(     9)     0
 -----------------------------------------------------------------------------------------------
 Internal  Forces:  Max     0.000000733 RMS     0.000000306

 ----------------------------------------------------------------------

 Electric dipole moment (input orientation):
 (Debye = 10**-18 statcoulomb cm , SI units = C m)
                  (au)            (Debye)         (10**-30 SI)
   Tot        0.129735D+00      0.329752D+00      0.109994D+01
   x          0.121790D+00      0.309560D+00      0.103258D+01
   y          0.000000D+00      0.000000D+00      0.000000D+00
   z         -0.447008D-01     -0.113618D+00     -0.378989D+00

 Dipole polarizability, Alpha (input orientation).
 (esu units = cm**3 , SI units = C**2 m**2 J**-1)
 Alpha(0;0):
               (au)            (10**-24 esu)      (10**-40 SI)
   iso        0.316983D+02      0.469720D+01      0.522634D+01
[...]
 0087360,-0.00000476,-0.00150399,-0.03544271,-0.00067755,0.00662483,0.0
 3354398,-0.00940910,-0.01474943,-0.00714753,0.00506517,0.01040397,0.00
 639650,-0.00105975,-0.00065680,0.00059415,-0.00114315,0.00067914,0.004
 71127,0.00654682,0.00432312,-0.00455439,0.00000226,-0.02949483,0.00000
 326,0.00000213,-0.00959758,-0.00000571,-0.00000082,-0.00099577,0.00000
 021,0.00000011,-0.00071120,-0.00000100,-0.01520745,-0.01045732,-0.0000
 0135,0.00000070,-0.01167584,0.00000865,-0.00000102,-0.00959806,-0.0000
 1156,0.00000057,-0.00522314,0.00000083,0.00000075,0.00148601,-0.000001
 05,0.00000045,-0.00322335,-0.00000010,0.00179708,0.00099984,-0.0000001
 7,-0.00112737,-0.00399102,-0.00000004,0.00000046,0.00253278,-0.0000004
 3,-0.00000095,-0.00220668,0.00000068,0.00000059,0.00167233,-0.00000045
 ,-0.00339904,0.01785893,-0.00504869,0.00133551,0.00484035,-0.00721641,
 -0.00671812,0.00310752,0.00170215,0.00878104,0.01671628,-0.03348126,0.
 01150622,0.00522573,-0.00280945,0.01119903,0.00386427,-0.00045579,-0.0
 0099921,-0.02185617,0.03675266,-0.00315272,0.00937289,0.00294589,-0.00
 889794,0.01350428,-0.02223570,0.00179422,-0.00117091,0.00081743,0.0104
 0990,-0.01713938,0.01847156,0.00339702,0.01785481,0.00504552,-0.001335
 56,0.00484216,0.00721779,0.00671635,0.00310701,-0.00170226,0.00000060,
 -0.00395011,-0.00015345,-0.00877841,0.01671311,0.03347910,0.01150173,0
 .00522751,0.00281196,0.01120224,0.00386388,0.00045610,-0.00099921,-0.0
 0395063,-0.00000617,-0.00456689,-0.02185387,-0.03674099,0.00314943,0.0
 0936774,-0.00294840,0.00889971,0.01350791,0.02223794,-0.00179459,-0.00
 117114,-0.00081722,0.00015305,-0.00456666,0.00000083,-0.01040760,-0.01
 713786,-0.01847314,0.11339753,0.00000002,0.08443537,-0.01017411,-0.000
 00005,0.08943652,0.00437767,0.,0.01109875,-0.00260539,0.,0.00642004,0.
 00000002,0.,0.00330075,0.01098491,0.00000001,-0.08302845,0.00214914,-0
 .00000001,0.12447167,-0.06839182,0.,0.02597507,-0.00344694,0.,0.002508
 55,0.08353141,0.,0.00236506,0.,0.,0.00094521,0.,0.,-0.00523049,0.02597
 339,0.,-0.00719296,0.00563526,0.,-0.00141312,-0.03256037,0.,0.00673834
 ,-0.02469170,0.04037030,-0.01344987,0.00083733,0.00593572,-0.00782130,
 -0.00584634,0.00327430,0.00047586,0.02605940,0.04025010,-0.04661025,0.
 01799643,0.00534232,-0.00533300,0.01222759,0.00072824,0.00096011,-0.00
 027020,-0.04795049,0.08308038,-0.01339211,0.01795194,0.00039244,-0.009
 44157,0.01658082,-0.02001505,0.00203837,-0.00120619,0.00093387,0.02116
 455,-0.03164019,0.01481886,-0.02469169,-0.04037032,-0.01344984,0.00083
 733,-0.00593572,-0.00782130,-0.00584632,-0.00327429,0.00047586,0.00364
 130,0.00162983,-0.00036924,0.02605937,-0.04025011,-0.04661023,-0.01799
 639,-0.00534232,-0.00533301,-0.01222759,-0.00072823,0.00096011,0.00027
 020,-0.00162983,-0.03209725,-0.00168637,0.04795050,0.08308037,-0.01339
 208,-0.01795190,0.00039245,-0.00944157,-0.01658082,-0.02001506,0.00203
 837,0.00120619,0.00093387,-0.00036924,0.00168637,0.00386988,0.02116453
 ,0.03164016,0.01481886,0.08508765,0.00000006,-0.27099315,-0.13125231,-
 0.00000001,-0.22457185,-0.01123235,-0.00000002,0.01108640,0.01161103,-
 0.00000002,-0.00407341,0.00000001,0.00000002,0.00605184,0.02568142,0.,
 0.19612171,-0.02086253,0.,-0.21176909,-0.12129887,0.,0.04580168,0.0037
 1436,0.,-0.00575017,0.10239871,0.,0.00351544,0.,0.,-0.00076577,0.,0.,-
 0.00628915,0.04581530,0.,-0.01334559,-0.00369190,0.,0.00591598,-0.0398
 8545,0.,0.00839348,0.02372179,-0.07682802,0.03718211,-0.00204652,-0.00
 040395,0.00046564,0.00759289,-0.00315795,-0.00111897,-0.02503339,-0.06
 496316,0.13577555,-0.06229215,-0.00220657,-0.00060633,-0.00319019,-0.0
 0484779,0.00176974,0.00022530,0.07620372,-0.14684852,0.02987779,-0.057
 94242,0.02089790,0.00673401,-0.00878918,0.00486570,-0.00008303,-0.0003
 9367,-0.00048194,-0.03558445,0.06619116,-0.02186655,0.02372178,0.07682
 799,0.03718212,-0.00204652,0.00040395,0.00046564,0.00759291,0.00315796
 ,-0.00111898,-0.00423477,-0.00418620,-0.00094433,-0.02503340,0.0649631
 3,0.13577557,0.06229215,0.00220658,-0.00060632,0.00319019,0.00484780,0
 .00176974,-0.00022530,0.00418619,0.00990956,0.00093411,-0.07620370,-0.
 14684855,0.02987781,0.05794242,0.02089784,0.00673401,0.00878918,0.0048
 6570,-0.00008303,0.00039366,-0.00048194,-0.00094433,-0.00093411,-0.003
 41511,-0.03558446,-0.06619115,-0.02186650,-0.11265609,0.00001287,-0.31
 162352,-0.07530701,0.00000849,0.42646876,0.01834949,-0.00000018,0.0082
 9085,-0.01833986,-0.00000016,0.01858608,-0.00000040,0.00000010,-0.0220
 0355,0.01099218,-0.00000081,-0.42442763,-0.01096583,0.00000096,0.42791
 651,0.00438046,-0.00000043,0.00952700,-0.00182148,0.00000007,0.0034421
 5,-0.00732413,-0.00000010,0.00053107,0.00000001,0.,0.00215819,0.,0.000
 00047,-0.00228819,0.00063755,0.00000014,-0.00488858,0.00706721,-0.0000
 0007,-0.00272816,-0.00822365,-0.00000008,0.00954026,0.04496633,-0.0890
 4911,0.02874710,0.00090584,-0.00027267,-0.00173419,0.00238279,-0.00229
 777,0.00025945,-0.04289718,-0.08588962,0.14626209,-0.04440010,0.000404
 90,0.00062959,0.00091313,-0.00214311,-0.00020058,0.00011414,0.08962367
 ,-0.15248681,0.03184114,-0.05216568,0.00142481,-0.00219597,0.00372773,
 -0.00038028,-0.00237276,0.00130149,-0.00096184,-0.02555450,0.04525465,
 0.00233166,0.04495981,0.08903685,0.02874207,0.00090601,0.00027267,-0.0
 0173431,0.00238236,0.00229741,0.00025944,-0.00535779,-0.00199584,-0.00
 171791,-0.04289040,0.08587701,0.14624427,0.04439200,-0.00040482,0.0006
 2969,-0.00091329,0.00214301,-0.00020049,-0.00011412,0.00199589,0.00579
 571,0.00188182,-0.08961108,-0.15246918,0.03183614,0.05215787,0.0014226
 3,-0.00219626,-0.00372822,-0.00038044,-0.00237273,-0.00130143,-0.00096
 167,-0.00171786,-0.00188182,-0.00241434,-0.02554928,-0.04524640,0.0023
 3382,-0.00000444,-0.32412356,-0.00001247,-0.00000304,-0.21317893,0.000
 01698,0.00000072,0.00502012,0.00000035,-0.00000072,0.00473822,0.000000
 73,0.01078350,-0.00307969,-0.00000087,0.00000046,0.02109403,-0.0000168
 5,-0.00000045,-0.02466330,0.00001699,0.00000016,0.01084824,0.00000038,
 -0.00000007,-0.00172259,0.00000013,-0.00000030,0.00249793,0.00000002,-
 0.00035462,0.00003534,0.00000009,-0.00016191,-0.01181542,-0.00000010,0
 .00000003,-0.00342489,-0.00000020,0.00000028,0.00179154,-0.00000010,-0
 .00000033,0.00190600,0.00000038,-0.08199684,0.15412403,-0.06265345,0.0
 0215302,0.00003202,-0.00148149,-0.00541986,0.00464098,-0.00012397,0.08
 526389,0.15844027,-0.22380024,0.10137327,-0.00098787,0.00132301,0.0018
 6563,0.00134480,0.00116099,-0.00013632,-0.15814673,0.22131602,-0.06236
 618,0.09775283,-0.02684628,-0.00364966,0.00604428,-0.00179365,0.000437
 55,-0.00069468,0.00214136,0.06491867,-0.10312830,0.02649866,0.08200040
 ,0.15413117,0.06265575,-0.00215294,0.00003204,0.00148135,0.00542006,0.
 00464117,0.00012399,-0.00000021,-0.00065046,0.00065963,-0.08526731,0.1
 5844714,0.22381196,0.10137678,-0.00098790,-0.00132295,0.00186555,0.001
 34497,-0.00116100,-0.00013633,-0.00065030,0.00000023,0.00002587,-0.158
 15392,-0.22132823,0.06236873,0.09775696,0.02684634,0.00364948,0.006043
 98,0.00179361,-0.00043774,-0.00069478,-0.00214143,-0.00065976,0.000025
 72,-0.00000009,-0.06492072,-0.10313188,-0.02649843,-0.00658551,-0.0000
 0216,-0.01264173,-0.00335239,-0.00000126,-0.00136821,0.00029490,-0.000
 00002,-0.00024310,0.00099130,0.,0.00016617,0.00000009,-0.00000008,-0.0
 0039048,0.00014082,-0.00000006,0.00003408,0.00155488,-0.00000116,-0.00
 043806,0.00298309,0.00000041,-0.00001994,0.00002905,-0.00000016,-0.000
 28725,0.00125480,0.00000004,0.00114321,0.00000025,-0.00000016,-0.00021
 214,0.00000017,0.00000196,-0.00057461,-0.00095135,0.00000011,0.0006180
 5,-0.00024271,0.00000016,0.00031233,0.00130461,-0.00000052,-0.00178495
 ,0.00165348,-0.00381364,0.00180734,-0.00065739,0.00036459,-0.00070439,
 -0.00213167,0.00067723,-0.00005557,0.00210708,-0.00450183,0.00566488,-
 0.00233717,0.00036139,0.00021803,0.00020730,0.00145551,-0.00017792,0.0
 0007657,0.00272868,-0.00945795,0.00208095,-0.00218320,0.00035797,-0.00
 053466,-0.00027554,0.00004519,-0.00049888,0.00031840,0.00042715,-0.001
 41663,0.00209660,-0.00011844,0.00165404,0.00381541,0.00180809,-0.00065
 791,-0.00036436,-0.00070405,-0.00213525,-0.00067907,-0.00005503,-0.000
 97152,-0.00004376,0.00036922,0.00211068,0.00450393,0.00566745,0.002338
 09,-0.00036114,0.00021838,-0.00020626,-0.00145772,-0.00017873,-0.00007
 631,0.00004314,0.00375291,0.00004375,-0.00272821,-0.00945998,0.0020819
 7,0.00218441,0.00035811,-0.00053439,0.00027646,0.00004644,-0.00049859,
 -0.00031830,0.00042733,0.00036924,-0.00004330,-0.00071189,-0.00141823,
 -0.00209927,-0.00011996,-0.00267666,0.00000218,-0.00430139,0.00031630,
 0.00000110,-0.01480335,-0.00127348,-0.00000001,-0.00012009,0.00253681,
 -0.00000004,-0.00024275,-0.00000008,0.00000011,-0.00076393,-0.00111231
 ,0.00000010,0.01261145,-0.00402310,0.00000116,-0.01276554,0.00252721,-
 0.00000039,-0.00134448,-0.00089386,0.00000015,0.00248893,-0.00128804,-
 0.00000007,0.00059411,-0.00000022,0.00000016,0.00059172,-0.00000019,-0
 .00000214,-0.00057125,-0.00037742,-0.00000011,0.00157747,0.00119229,-0
 .00000015,-0.00216428,-0.00170288,0.00000052,0.00074045,0.00071179,-0.
 00150614,0.00057452,-0.00018500,-0.00089027,0.00132341,-0.00017463,0.0
 0030010,0.00044428,-0.00056719,-0.00131829,0.00197620,-0.00055226,-0.0
 0083874,0.00020768,-0.00070100,0.00049062,-0.00030799,-0.00025869,0.00
 188106,-0.00011999,0.00058721,-0.00087925,0.00030724,0.00147560,-0.000
 93963,0.00115984,0.00027937,-0.00014042,-0.00007669,-0.00237616,0.0017
 3585,-0.00172227,0.00071114,0.00150436,0.00057375,-0.00018447,0.000890
 06,0.00132308,-0.00017065,-0.00029806,0.00044374,0.00021501,-0.0002146
 5,0.00003397,-0.00057101,0.00131622,0.00197384,0.00055145,0.00083848,0
 .00020730,0.00069994,-0.00048824,-0.00030708,0.00025843,0.00021526,-0.
 00175592,0.00022345,-0.00188171,-0.00011812,0.00058622,0.00087816,0.00
 030718,0.00147531,0.00093871,0.00115854,0.00027907,0.00014030,-0.00007
 691,0.00003394,-0.00022390,0.00033184,-0.00237454,-0.00173327,-0.00172
 063,0.02373805,0.00000008,-0.00949664,-0.01226583,0.,-0.00490566,0.000
 16810,0.,0.00027030,0.00000683,0.,0.00031572,0.,0.,-0.00045579,0.00093
 634,0.,0.00259847,-0.00149029,0.,0.00129880,-0.02429425,0.,0.01069765,
 -0.00001390,0.,0.00115870,0.02770780,0.,0.00486152,0.,0.,0.00051838,0.
 ,0.00000013,-0.00328158,0.01071733,0.,0.00091929,0.00152339,0.,-0.0027
 2575,-0.01138651,-0.00000007,0.00086047,0.00019409,-0.00097210,0.00064
 897,-0.00008052,0.00015572,-0.00030237,-0.00169957,0.00201179,-0.00042
 722,0.00155563,-0.00041163,0.00215972,-0.00104713,0.00007655,-0.000189
 16,0.00041591,0.00169273,-0.00104941,0.00033807,-0.00127653,0.00001204
 ,0.00030609,-0.00084331,0.00069395,-0.00015169,0.00035715,-0.00058576,
 -0.00023503,0.00022285,0.00047285,0.00005760,0.00027823,-0.00060602,0.
 00019400,0.00097203,0.00064892,-0.00008052,-0.00015572,-0.00030237,-0.
 00170005,-0.00201191,-0.00042714,0.00003037,-0.00008112,0.00002302,0.0
 0155623,0.00041156,0.00215969,0.00104713,-0.00007655,-0.00018916,-0.00
 041591,-0.00169286,-0.00104930,-0.00033800,0.00008113,-0.00093321,-0.0
 0001492,0.00127673,0.00001202,0.00030606,0.00084332,0.00069395,-0.0001
 5169,-0.00035715,-0.00058576,-0.00023495,-0.00022279,0.00047282,0.0000
 2302,0.00001492,0.00002496,0.00005757,-0.00027830,-0.00060593,-0.01002
 251,0.00000414,-0.03285767,-0.00155208,0.00000506,0.00666503,0.0010211
 3,-0.00000009,-0.00112749,-0.00017892,-0.00000022,0.00162751,-0.000001
 33,-0.00000120,0.00310605,-0.00108485,-0.00000171,-0.00632397,0.001322
 58,-0.00000133,0.00576755,0.00213444,-0.00000007,-0.00012139,-0.000833
 30,0.00000020,0.00075302,-0.00146093,0.00000012,0.00040815,0.00000014,
 0.,0.00014729,0.,-0.00000084,-0.00086110,-0.00074250,0.00000020,0.0008
 6191,0.00049349,-0.00000015,-0.00004003,0.00016720,-0.00000009,-0.0005
 3543,0.00343449,-0.00780986,0.00140166,-0.00000442,0.00096691,-0.00049
 615,0.00007909,-0.00031319,0.00004096,-0.00530910,-0.00672928,0.015413
 28,-0.00269703,0.00114505,-0.00244124,0.00165104,-0.00078311,0.0001522
 6,0.00002892,0.00676122,0.00327366,0.00169072,-0.00326260,-0.00060082,
 -0.00034499,0.00134712,0.00029683,-0.00039922,0.00005717,-0.00014337,-
 0.00048622,0.00143704,-0.00128478,0.00343244,0.00780587,0.00139930,-0.
 00000451,-0.00096569,-0.00049459,0.00008027,0.00031390,0.00004100,0.00
 179993,-0.00039388,-0.00046030,-0.00530813,0.00672523,0.01540873,0.002
 69317,-0.00114376,-0.00243964,-0.00164800,0.00078381,0.00015297,-0.000
 02888,0.00039492,-0.01639798,0.00042128,-0.00676020,0.00327594,0.00168
 871,0.00325906,-0.00060216,-0.00034357,-0.00134431,0.00029964,-0.00039
 947,-0.00005721,-0.00014318,-0.00046025,-0.00041996,0.00173211,-0.0004
 8541,-0.00143758,-0.00128640,-0.00643345,-0.00000418,0.00341206,-0.003
 03915,-0.00000521,-0.03364732,-0.00022507,0.,-0.00069458,-0.00103058,0
 .00000012,-0.00047258,0.00000129,0.00000132,0.00174936,-0.00000465,0.0
 0000170,0.02639462,0.00745523,0.00000138,-0.00851746,0.00200083,0.0000
 0010,-0.00097894,0.00014170,-0.00000022,-0.00077931,-0.00125478,-0.000
 00014,0.00076443,-0.00000010,0.,-0.00042158,0.,-0.00000083,-0.00051035
 ,-0.00034644,-0.00000019,0.00067202,-0.00051162,0.00000016,0.00064658,
 0.00034813,0.00000013,-0.00106284,0.00232779,-0.00079210,0.00235507,0.
 00055693,0.00140625,-0.00333486,-0.00044524,-0.00009970,0.00025517,-0.
 00193095,-0.00118642,-0.00185461,-0.00215819,0.00141807,-0.00042677,0.
 00455391,0.00035273,0.00008328,-0.00016841,-0.00054890,-0.00032756,0.0
 0169400,-0.00136880,0.00328950,-0.00312380,0.00368324,-0.00926044,0.00
 070513,-0.00020671,-0.00012789,0.00108882,-0.00216687,0.00687001,0.002
 32990,0.00079617,0.00235761,0.00055701,-0.00140747,-0.00333641,-0.0004
 4289,0.00010068,0.00025484,-0.00050855,-0.00003548,-0.00036415,-0.0019
 3546,0.00119061,-0.00184931,0.00216221,-0.00141939,-0.00042845,-0.0045
 5698,-0.00035178,0.00008351,0.00016832,0.00003446,0.00252564,0.0000591
 4,0.00054611,-0.00033139,0.00169625,0.00137251,0.00329119,-0.00312523,
 -0.00368607,-0.00926330,0.00070508,0.00020669,-0.00012807,-0.00036421,
 -0.00006044,-0.00077120,0.00108811,0.00216731,0.00687140,0.04570947,0.
 00000010,-0.01032934,-0.02044508,0.00000017,-0.00018938,0.00129220,-0.
 00000003,0.00877067,-0.00113186,-0.00000004,0.00229856,-0.00000008,0.0
 0000004,0.00200882,0.00944482,-0.00000009,-0.00883567,-0.00245250,0.00
 000009,0.02418648,-0.03077837,0.,0.01319023,-0.00045847,0.,-0.00035048
 ,0.03163762,-0.00000001,0.00514142,0.00000001,0.,-0.00002460,0.,-0.000
 00065,-0.00587987,0.01318813,0.,0.00031716,0.00039447,0.,0.00063837,-0
 .01375895,0.00000005,-0.00087548,-0.00811163,0.00741157,-0.00075789,0.
 00014904,0.00251666,-0.00332092,-0.00020103,-0.00003157,0.00008820,0.0
 0689713,0.00797118,0.00144466,-0.00268498,0.00177842,-0.00214140,0.004
 60699,-0.00063724,0.00038119,-0.00001025,-0.00950451,0.01300467,-0.001
 09393,-0.00249475,0.00435394,-0.00335631,0.00662803,-0.00799460,0.0004
 5963,-0.00023116,-0.00003999,0.00411276,-0.00290695,0.00230259,-0.0081
 1167,-0.00741163,-0.00075793,0.00014903,-0.00251666,-0.00332092,-0.000
 19965,0.00003224,0.00008813,0.00126650,0.00039215,-0.00012216,0.006895
 81,-0.00797123,0.00144470,0.00268487,-0.00177843,-0.00214142,-0.004606
 99,0.00063790,0.00038154,0.00001020,-0.00039215,-0.01268915,-0.0009951
 7,0.00950391,0.01300433,-0.00109395,0.00249466,0.00435394,-0.00335631,
 -0.00662804,-0.00799460,0.00045955,0.00023110,-0.00004002,-0.00012216,
 0.00099518,0.00137803,0.00411287,0.00290710,0.00230266,0.03703127,-0.0
 0000035,0.10193927,0.02808684,-0.00000095,0.08501921,-0.00105697,-0.00
 000024,-0.04241282,-0.00634592,-0.00000024,0.00866463,0.00000050,0.000
 00023,-0.01022186,-0.04898455,0.00000046,-0.05730644,0.04266167,-0.000
 00048,0.05392781,-0.06770721,0.,0.03012934,-0.00030152,0.,0.00761327,0
 .07583054,-0.00000005,0.01446537,0.00000004,0.,0.00012026,0.,0.0000009
 7,-0.01549507,0.03018310,0.00000002,0.00361138,0.00008212,0.,-0.002185
 03,-0.03346984,-0.00000007,-0.00341056,0.01586634,0.00862756,-0.007901
 83,0.00385219,0.00049941,-0.00064519,-0.00391010,-0.00024409,0.0016022
 1,-0.01911889,0.00307842,-0.06253536,0.04220624,-0.00148144,0.00071848
 ,-0.00407025,0.00589155,0.00045455,-0.00237047,-0.00818570,0.05779804,
 -0.00464289,0.04008699,-0.01566224,-0.00016547,0.00069243,0.00278183,-
 0.00213648,-0.00011280,0.00099185,0.00842579,-0.03821607,0.01156784,0.
 01586657,-0.00862697,-0.00790152,0.00385220,-0.00049939,-0.00064519,-0
 .00391216,0.00024317,0.00160237,0.00331046,0.00069718,-0.00148096,-0.0
 1911702,-0.00307778,-0.06253390,-0.04220584,0.00148145,0.00071847,0.00
 407027,-0.00589251,0.00045410,0.00237052,-0.00069718,0.00356428,-0.002
 45055,0.00818603,0.05779708,-0.00464250,-0.04008653,-0.01566190,-0.000
 16549,-0.00069245,0.00278183,-0.00213632,0.00011282,0.00099182,-0.0014
 8099,0.00245055,0.00032069,0.00842530,0.03821560,0.01156761,-0.0508684
 6,-0.00001587,0.10130652,-0.02037757,-0.00000381,0.40639778,0.05417784
 ,-0.00000063,0.01559691,-0.05489644,-0.00000063,0.05967663,-0.00000383
 ,0.00000052,-0.06058966,0.01801662,-0.00000421,-0.47120722,-0.01688589
 ,0.00000385,0.47362737,0.01345484,-0.00000032,-0.00990924,0.00034682,0
 .00000002,0.00315636,-0.01539197,-0.00000009,0.00038772,0.00000002,0.0
 0000001,0.00033218,-0.00000003,-0.00000108,-0.00108303,-0.00666432,0.0
 0000010,0.00258172,0.00040419,-0.00000001,0.00020974,0.00565363,0.0000
 0018,-0.00305903,-0.00838534,0.04209208,0.00734250,0.00018583,-0.00034
 904,-0.00214366,0.00079366,-0.00020226,0.00030341,0.00570242,0.0426369
 1,-0.08069749,-0.00532323,-0.00031907,0.00029037,0.00398330,-0.0006587
 2,0.00018110,0.00005148,-0.04159998,0.07755652,0.00451013,-0.00097766,
 0.03111500,0.00044243,-0.00128891,-0.00131509,0.00054971,0.00014650,0.
 00013369,-0.00615004,0.00170425,-0.02976343,-0.00837889,-0.04207526,0.
 00734739,0.00018591,0.00034913,-0.00214341,0.00079635,0.00020342,0.000
 30311,0.00170344,-0.00005914,0.00064776,0.00569322,-0.04262031,-0.0806
 7340,0.00533085,0.00031917,0.00029044,-0.00398290,0.00066010,0.0001815
 4,-0.00005175,0.00005920,0.00266949,0.00041582,0.04158185,0.07753193,0
 .00451514,0.00098558,0.03111272,0.00044237,0.00128890,-0.00131482,0.00
 054957,-0.00014667,0.00013363,0.00064778,-0.00041579,-0.00017018,-0.00
 615486,-0.00171201,-0.02976132,0.14366291,0.00001350,0.31202980,0.1536
 5000,0.00000355,-0.01831948,-0.00203197,0.00000003,0.00260990,0.001198
 15,0.00000004,-0.00405200,0.00000370,0.00000009,0.00258652,0.00599294,
 0.00000411,0.04115678,-0.00205386,-0.00000372,-0.04499108,0.01734254,0
 .00000037,-0.00188083,-0.00013509,-0.00000003,-0.00200850,-0.01586286,
 0.00000008,-0.00146359,0.00000002,0.,0.00036460,0.00000002,-0.00000062
 ,-0.00084352,-0.00518056,-0.00000009,0.00069378,-0.00050577,0.00000001
 ,0.00086938,0.00515922,-0.00000002,-0.00287876,-0.07948459,0.15716131,
 -0.07718780,0.00048448,-0.00099513,-0.00096517,-0.00067283,-0.00036230
 ,0.00026361,0.07866636,0.16145863,-0.15324819,0.10957375,-0.00043996,0
 .00055051,0.00136341,0.00119469,0.00097112,-0.00053990,-0.15900859,0.1
 5646460,-0.07722943,0.10696841,-0.01176729,-0.00002514,-0.00086169,0.0
 0148262,-0.00063482,-0.00022493,0.00065783,0.07720424,-0.10813949,0.00
 923011,-0.07948888,-0.15717522,-0.07719128,0.00048441,0.00099503,-0.00
 096540,-0.00067178,0.00036284,0.00026356,0.00100657,-0.00320477,0.0006
 8513,0.07866969,-0.16147226,-0.15326602,-0.10958101,0.00043985,0.00055
 037,-0.00136382,-0.00119441,0.00097143,0.00053999,0.00320470,-0.004738
 06,0.00225770,0.15902212,0.15648228,-0.07723296,-0.10697597,-0.0117637
 9,-0.00002512,0.00086169,0.00148230,-0.00063502,0.00022491,0.00065788,
 0.00068512,-0.00225777,0.00039670,0.07720799,0.10814714,0.00922692\\@
 The archive entry for this job was punched.


 REALITY IS FOR PEOPLE WHO CAN'T FACE SCIENCE FICTION.
 Job cpu time:       0 days  1 hours 11 minutes 34.5 seconds.
 Elapsed time:       0 days  1 hours 11 minutes 35.2 seconds.
 File lengths (MBytes):  RWF=     53 Int=      0 D2E=      0 Chk=     40 Scr=      1
 Normal termination of Gaussian 16 at Tue Sep 15 16:38:37 2020.
