 Entering Gaussian System, Link 0=g16
 Input=CFC-115.gjf
 Output=CFC-115.log
 Initial command:
 /apps/gaussian/g16c01/g16/l1.exe "/jobfs/9051554.gadi-pbs/Gau-755560.inp" -scrdir="/jobfs/9051554.gadi-pbs/"
 Entering Link 1 = /apps/gaussian/g16c01/g16/l1.exe PID=    755561.
  
 Copyright (c) 1988-2019, Gaussian, Inc.  All Rights Reserved.
  
 This is part of the Gaussian(R) 16 program.  It is based on
 the Gaussian(R) 09 system (copyright 2009, Gaussian, Inc.),
 the Gaussian(R) 03 system (copyright 2003, Gaussian, Inc.),
 the Gaussian(R) 98 system (copyright 1998, Gaussian, Inc.),
 the Gaussian(R) 94 system (copyright 1995, Gaussian, Inc.),
 the Gaussian 92(TM) system (copyright 1992, Gaussian, Inc.),
 the Gaussian 90(TM) system (copyright 1990, Gaussian, Inc.),
 the Gaussian 88(TM) system (copyright 1988, Gaussian, Inc.),
 the Gaussian 86(TM) system (copyright 1986, Carnegie Mellon
 University), and the Gaussian 82(TM) system (copyright 1983,
 Carnegie Mellon University). Gaussian is a federally registered
 trademark of Gaussian, Inc.
  
 This software contains proprietary and confidential information,
 including trade secrets, belonging to Gaussian, Inc.
  
 This software is provided under written license and may be
 used, copied, transmitted, or stored only in accord with that
 written license.
  
 The following legend is applicable only to US Government
 contracts under FAR:
  
                    RESTRICTED RIGHTS LEGEND
  
 Use, reproduction and disclosure by the US Government is
 subject to restrictions as set forth in subparagraphs (a)
 and (c) of the Commercial Computer Software - Restricted
 Rights clause in FAR 52.227-19.
  
 Gaussian, Inc.
 340 Quinnipiac St., Bldg. 40, Wallingford CT 06492
  
  
 ---------------------------------------------------------------
 Warning -- This program may not be used in any manner that
 competes with the business of Gaussian, Inc. or will provide
 assistance to any competitor of Gaussian, Inc.  The licensee
 of this program is prohibited from giving any competitor of
 Gaussian, Inc. access to this program.  By using this program,
 the user acknowledges that Gaussian, Inc. is engaged in the
 business of creating and licensing software in the field of
 computational chemistry and represents and warrants to the
 licensee that it is not a competitor of Gaussian, Inc. and that
 it will not use this program in any manner prohibited above.
 ---------------------------------------------------------------
  

 Cite this work as:
 Gaussian 16, Revision C.01,
 M. J. Frisch, G. W. Trucks, H. B. Schlegel, G. E. Scuseria, 
 M. A. Robb, J. R. Cheeseman, G. Scalmani, V. Barone, 
 G. A. Petersson, H. Nakatsuji, X. Li, M. Caricato, A. V. Marenich, 
 J. Bloino, B. G. Janesko, R. Gomperts, B. Mennucci, H. P. Hratchian, 
 J. V. Ortiz, A. F. Izmaylov, J. L. Sonnenberg, D. Williams-Young, 
 F. Ding, F. Lipparini, F. Egidi, J. Goings, B. Peng, A. Petrone, 
 T. Henderson, D. Ranasinghe, V. G. Zakrzewski, J. Gao, N. Rega, 
 G. Zheng, W. Liang, M. Hada, M. Ehara, K. Toyota, R. Fukuda, 
 J. Hasegawa, M. Ishida, T. Nakajima, Y. Honda, O. Kitao, H. Nakai, 
 T. Vreven, K. Throssell, J. A. Montgomery, Jr., J. E. Peralta, 
 F. Ogliaro, M. J. Bearpark, J. J. Heyd, E. N. Brothers, K. N. Kudin, 
 V. N. Staroverov, T. A. Keith, R. Kobayashi, J. Normand, 
 K. Raghavachari, A. P. Rendell, J. C. Burant, S. S. Iyengar, 
 J. Tomasi, M. Cossi, J. M. Millam, M. Klene, C. Adamo, R. Cammi, 
 J. W. Ochterski, R. L. Martin, K. Morokuma, O. Farkas, 
 J. B. Foresman, and D. J. Fox, Gaussian, Inc., Wallingford CT, 2019.
 
 ******************************************
 Gaussian 16:  ES64L-G16RevC.01  3-Jul-2019
                27-Jul-2020 
 ******************************************
 %NprocShared=4
 Will use up to    4 processors via shared memory.
 %chk=checkpoint.chk
 ----------------------------------------------------------------------
 # wB97xD/Gen Freq=(anharmonic,ReadAnharm) Opt=(VeryTight,ZMatrix,CalcA
 ll) Int=UltraFine
 ----------------------------------------------------------------------
 1/7=1,10=4,18=40,26=4,38=1,80=1/1,3;
 2/12=2,17=6,18=5,29=3,40=1/2;
 3/5=7,11=2,25=1,30=1,71=2,74=-58,75=-5,140=1/1,2,3;
 4//1;
 5/5=2,38=5/2;
 8/6=4,10=90,11=11/1;
 11/6=1,8=1,9=11,15=111,16=1/1,2,10;
 10/6=1/2;
 6/7=2,8=2,9=2,10=2,18=1,28=1/1;
 7/10=1,25=1/1,2,3,16;
 1/7=1,10=4,18=40,26=4,80=1/3(3);
 2/29=3/2;
 7/8=1,9=1,25=1,44=-1,71=2,72=1/16;
 99//99;
 2/29=3/2;
 3/5=7,6=1,11=2,25=1,30=1,71=2,74=-58,75=-5,82=7,140=1/1,2,3;
 4/5=5,16=3,69=1/1;
 5/5=2,38=5/2;
 8/6=4,10=90,11=11/1;
 11/6=1,8=1,9=11,15=111,16=1/1,2,10;
 10/6=1/2;
 7/10=1,25=1/1,2,3,16;
 1/7=1,10=4,18=40,26=4,80=1/3(-8);
 2/29=3/2;
 6/7=2,8=2,9=2,10=2,18=1,19=2,28=1/1;
 7/8=1,9=1,25=1,44=-1,71=1,72=1/16;
 99//99;
 ------------------------------------------
 CFC-115 - F3C-CClF2 ANHARMONIC FREQUENCIES
 ------------------------------------------
 Symbolic Z-matrix:
 Charge =  0 Multiplicity = 1
 C
 C                    1    r2
 F                    1    r3       2    a3
 F                    1    r4       2    a4       3    d4       0
 F                    1    r5       2    a5       3    d5       0
 F                    2    r6       1    a6       3    d6       0
 Cl                   2    r7       1    a7       3    d7       0
 F                    2    r8       1    a8       3    d8       0
       Variables:
  r2                    1.5338                   
  r3                    1.3573                   
  a3                  112.17                     
  r4                    1.3575                   
  a4                  111.78                     
  d4                  240.15                     
  r5                    1.3573                   
  a5                  112.17                     
  d5                  120.3                      
  r6                    1.3629                   
  a6                  110.75                     
  d6                   61.25                     
  r7                    1.7839                   
  a7                  112.36                     
  d7                  299.81                     
  r8                    1.363                    
  a8                  110.74                     
  d8                  178.48                     
 

 GradGradGradGradGradGradGradGradGradGradGradGradGradGradGradGradGradGrad
 Berny optimization.
 Initialization pass.
                       ----------------------------
                       !    Initial Parameters    !
                       ! (Angstroms and Degrees)  !
 ----------------------                            ----------------------
 !      Name          Value   Derivative information (Atomic Units)     !
 ------------------------------------------------------------------------
 !       r2          1.5338   calculate D2E/DX2 analytically            !
 !       r3          1.3573   calculate D2E/DX2 analytically            !
 !       a3        112.17     calculate D2E/DX2 analytically            !
 !       r4          1.3575   calculate D2E/DX2 analytically            !
 !       a4        111.78     calculate D2E/DX2 analytically            !
 !       d4        240.15     calculate D2E/DX2 analytically            !
 !       r5          1.3573   calculate D2E/DX2 analytically            !
 !       a5        112.17     calculate D2E/DX2 analytically            !
 !       d5        120.3      calculate D2E/DX2 analytically            !
 !       r6          1.3629   calculate D2E/DX2 analytically            !
 !       a6        110.75     calculate D2E/DX2 analytically            !
 !       d6         61.25     calculate D2E/DX2 analytically            !
 !       r7          1.7839   calculate D2E/DX2 analytically            !
 !       a7        112.36     calculate D2E/DX2 analytically            !
 !       d7        299.81     calculate D2E/DX2 analytically            !
 !       r8          1.363    calculate D2E/DX2 analytically            !
 !       a8        110.74     calculate D2E/DX2 analytically            !
 !       d8        178.48     calculate D2E/DX2 analytically            !
 ------------------------------------------------------------------------
 Trust Radius=3.00D-01 FncErr=1.00D-07 GrdErr=1.00D-06 EigMax=2.50D+02 EigMin=1.00D-04
 Number of steps in this run=     28 maximum allowed number of steps=    100.
 GradGradGradGradGradGradGradGradGradGradGradGradGradGradGradGradGradGrad

 ---------------------------------------------------------------------------------------------------
                            Z-MATRIX (ANGSTROMS AND DEGREES)
   CD    Cent   Atom    N1       Length/X        N2       Alpha/Y        N3        Beta/Z          J
 ---------------------------------------------------------------------------------------------------
      1      1  C 
      2      2  C        1   1.533800(     1)
      3      3  F        1   1.357300(     2)      2  112.170(     8)
      4      4  F        1   1.357500(     3)      2  111.780(     9)      3  240.150(    14)      0
      5      5  F        1   1.357300(     4)      2  112.170(    10)      3  120.300(    15)      0
      6      6  F        2   1.362900(     5)      1  110.750(    11)      3   61.250(    16)      0
      7      7  Cl       2   1.783900(     6)      1  112.360(    12)      3  299.810(    17)      0
      8      8  F        2   1.363000(     7)      1  110.740(    13)      3  178.480(    18)      0
 ---------------------------------------------------------------------------------------------------
                         Z-Matrix orientation:                         
 ---------------------------------------------------------------------
 Center     Atomic      Atomic             Coordinates (Angstroms)
 Number     Number       Type             X           Y           Z
 ---------------------------------------------------------------------
      1          6           0        0.000000    0.000000    0.000000
      2          6           0        0.000000    0.000000    1.533800
      3          9           0        1.256952    0.000000   -0.512185
      4          9           0       -0.627437    1.093354   -0.503692
      5          9           0       -0.634167   -1.085247   -0.512185
      6          9           0        0.613018    1.117385    2.016663
      7         17           0        0.820144   -1.431472    2.212440
      8          9           0       -1.274225    0.033812    2.016476
 ---------------------------------------------------------------------
                    Distance matrix (angstroms):
                    1          2          3          4          5
     1  C    0.000000
     2  C    1.533800   0.000000
     3  F    1.357300   2.401247   0.000000
     4  F    1.357500   2.395929   2.178628   0.000000
     5  F    1.357300   2.401247   2.180389   2.178628   0.000000
     6  F    2.385638   1.362900   2.838710   2.809181   3.578007
     7  Cl   2.759826   1.783900   3.108616   3.980905   3.107808
     8  F    2.385575   1.363000   3.578007   2.809308   2.838326
                    6          7          8
     6  F    0.000000
     7  Cl   2.564741   0.000000
     8  F    2.176193   2.563560   0.000000
 Stoichiometry    C2ClF5
 Framework group  C1[X(C2ClF5)]
 Deg. of freedom    18
 Full point group                 C1      NOp   1
 Largest Abelian subgroup         C1      NOp   1
 Largest concise Abelian subgroup C1      NOp   1
                         Standard orientation:                         
 ---------------------------------------------------------------------
 Center     Atomic      Atomic             Coordinates (Angstroms)
 Number     Number       Type             X           Y           Z
 ---------------------------------------------------------------------
      1          6           0       -0.943392   -0.188061   -0.000031
      2          6           0        0.454798    0.442498   -0.000195
      3          9           0       -1.153602   -0.968092   -1.090731
      4          9           0       -1.920793    0.754008    0.001153
      5          9           0       -1.152586   -0.969778    1.089657
      6          9           0        0.621477    1.247164   -1.087498
      7         17           0        1.751673   -0.782416   -0.000595
      8          9           0        0.622516    1.244970    1.088694
 ---------------------------------------------------------------------
 Rotational constants (GHZ):           2.2993873           1.4609782           1.3112638
 General basis read from cards:  (5D, 7F)
 There are   204 symmetry adapted cartesian basis functions of A   symmetry.
 There are   188 symmetry adapted basis functions of A   symmetry.
   188 basis functions,   352 primitive gaussians,   204 cartesian basis functions
    37 alpha electrons       37 beta electrons
       nuclear repulsion energy       525.9744135187 Hartrees.
 NAtoms=    8 NActive=    8 NUniq=    8 SFac= 1.00D+00 NAtFMM=   60 NAOKFM=F Big=F
 Integral buffers will be    131072 words long.
 Raffenetti 2 integral format.
 Two-electron integral symmetry is turned on.
 Nuclear repulsion after empirical dispersion term =      525.9719178305 Hartrees.
 One-electron integrals computed using PRISM.
 NBasis=   188 RedAO= T EigKep=  2.72D-04  NBF=   188
 NBsUse=   188 1.00D-06 EigRej= -1.00D+00 NBFU=   188
 ExpMin= 3.35D-02 ExpMax= 6.35D+04 ExpMxC= 2.17D+03 IAcc=3 IRadAn=         5 AccDes= 0.00D+00
 Harris functional with IExCor= 4639 and IRadAn=       5 diagonalized for initial guess.
 HarFok:  IExCor= 4639 AccDes= 0.00D+00 IRadAn=         5 IDoV= 1 UseB2=F ITyADJ=14
 ICtDFT=  3500011 ScaDFX=  1.000000  1.000000  1.000000  1.000000
 FoFCou: FMM=F IPFlag=           0 FMFlag=      100000 FMFlg1=           0
         NFxFlg=           0 DoJE=T BraDBF=F KetDBF=T FulRan=T
         wScrn=  0.000000 ICntrl=       500 IOpCl=  0 I1Cent=   200000004 NGrid=           0
         NMat0=    1 NMatS0=      1 NMatT0=    0 NMatD0=    1 NMtDS0=    0 NMtDT0=    0
 Petite list used in FoFCou.
 Requested convergence on RMS density matrix=1.00D-08 within 128 cycles.
 Requested convergence on MAX density matrix=1.00D-06.
 Requested convergence on             energy=1.00D-06.
 No special actions if energy rises.
 SCF Done:  E(RwB97XD) =  -1035.37844779     A.U. after   13 cycles
            NFock= 13  Conv=0.94D-08     -V/T= 2.0023
 DoSCS=F DFT=T ScalE2(SS,OS)=  1.000000  1.000000
 Range of M.O.s used for correlation:     1   188
 NBasis=   188 NAE=    37 NBE=    37 NFC=     0 NFV=     0
 NROrb=    188 NOA=    37 NOB=    37 NVA=   151 NVB=   151

 **** Warning!!: The largest alpha MO coefficient is  0.17154322D+02

 Symmetrizing basis deriv contribution to polar:
 IMax=3 JMax=2 DiffMx= 0.00D+00
 G2DrvN: will do     9 centers at a time, making    1 passes.
 Calling FoFCou, ICntrl=  3107 FMM=F I1Cent=   0 AccDes= 0.00D+00.
 End of G2Drv F.D. properties file   721 does not exist.
 End of G2Drv F.D. properties file   722 does not exist.
 End of G2Drv F.D. properties file   788 does not exist.
          IDoAtm=11111111
          Differentiating once with respect to electric field.
                with respect to dipole field.
          Differentiating once with respect to nuclear coordinates.
 CalDSu exits because no D1Ps are significant.
          There are    27 degrees of freedom in the 1st order CPHF.  IDoFFX=6 NUNeed=     3.
     24 vectors produced by pass  0 Test12= 2.07D-14 3.70D-09 XBig12= 1.61D+01 1.52D+00.
 AX will form    24 AO Fock derivatives at one time.
     24 vectors produced by pass  1 Test12= 2.07D-14 3.70D-09 XBig12= 2.66D+00 2.58D-01.
     24 vectors produced by pass  2 Test12= 2.07D-14 3.70D-09 XBig12= 3.19D-01 8.81D-02.
     24 vectors produced by pass  3 Test12= 2.07D-14 3.70D-09 XBig12= 8.83D-03 1.64D-02.
     24 vectors produced by pass  4 Test12= 2.07D-14 3.70D-09 XBig12= 1.07D-04 2.09D-03.
     24 vectors produced by pass  5 Test12= 2.07D-14 3.70D-09 XBig12= 9.47D-07 2.04D-04.
     24 vectors produced by pass  6 Test12= 2.07D-14 3.70D-09 XBig12= 6.22D-09 1.09D-05.
     10 vectors produced by pass  7 Test12= 2.07D-14 3.70D-09 XBig12= 4.15D-11 1.33D-06.
      3 vectors produced by pass  8 Test12= 2.07D-14 3.70D-09 XBig12= 2.44D-13 9.58D-08.
      2 vectors produced by pass  9 Test12= 2.07D-14 3.70D-09 XBig12= 1.46D-15 7.70D-09.
 InvSVY:  IOpt=1 It=  1 EMax= 2.66D-15
 Solved reduced A of dimension   183 with    27 vectors.
 Isotropic polarizability for W=    0.000000       45.86 Bohr**3.
 End of Minotr F.D. properties file   721 does not exist.
 End of Minotr F.D. properties file   722 does not exist.
 End of Minotr F.D. properties file   788 does not exist.

 **********************************************************************

            Population analysis using the SCF Density.

 **********************************************************************

 Orbital symmetries:
       Occupied  (A) (A) (A) (A) (A) (A) (A) (A) (A) (A) (A) (A)
                 (A) (A) (A) (A) (A) (A) (A) (A) (A) (A) (A) (A)
                 (A) (A) (A) (A) (A) (A) (A) (A) (A) (A) (A) (A)
                 (A)
       Virtual   (A) (A) (A) (A) (A) (A) (A) (A) (A) (A) (A) (A)
                 (A) (A) (A) (A) (A) (A) (A) (A) (A) (A) (A) (A)
                 (A) (A) (A) (A) (A) (A) (A) (A) (A) (A) (A) (A)
                 (A) (A) (A) (A) (A) (A) (A) (A) (A) (A) (A) (A)
                 (A) (A) (A) (A) (A) (A) (A) (A) (A) (A) (A) (A)
                 (A) (A) (A) (A) (A) (A) (A) (A) (A) (A) (A) (A)
                 (A) (A) (A) (A) (A) (A) (A) (A) (A) (A) (A) (A)
                 (A) (A) (A) (A) (A) (A) (A) (A) (A) (A) (A) (A)
                 (A) (A) (A) (A) (A) (A) (A) (A) (A) (A) (A) (A)
                 (A) (A) (A) (A) (A) (A) (A) (A) (A) (A) (A) (A)
                 (A) (A) (A) (A) (A) (A) (A) (A) (A) (A) (A) (A)
                 (A) (A) (A) (A) (A) (A) (A) (A) (A) (A) (A) (A)
                 (A) (A) (A) (A) (A) (A) (A)
 The electronic state is 1-A.
 Alpha  occ. eigenvalues -- -101.73033 -24.88168 -24.88158 -24.87995 -24.87995
 Alpha  occ. eigenvalues --  -24.87970 -10.60241 -10.57838  -9.63008  -7.37784
 Alpha  occ. eigenvalues --   -7.36650  -7.36644  -1.46313  -1.43022  -1.37520
 Alpha  occ. eigenvalues --   -1.37119  -1.36618  -1.01715  -0.90829  -0.80551
 Alpha  occ. eigenvalues --   -0.74638  -0.73510  -0.72764  -0.69712  -0.66818
 Alpha  occ. eigenvalues --   -0.60927  -0.59816  -0.59576  -0.57978  -0.56220
 Alpha  occ. eigenvalues --   -0.56052  -0.55321  -0.54516  -0.53703  -0.49958
 Alpha  occ. eigenvalues --   -0.45054  -0.44874
 Alpha virt. eigenvalues --    0.03073   0.05995   0.06579   0.06878   0.07410
 Alpha virt. eigenvalues --    0.09704   0.09815   0.10251   0.10428   0.12563
 Alpha virt. eigenvalues --    0.12971   0.14097   0.15592   0.18195   0.19781
 Alpha virt. eigenvalues --    0.20656   0.21966   0.22363   0.23450   0.23989
 Alpha virt. eigenvalues --    0.24168   0.25037   0.25128   0.25939   0.26161
 Alpha virt. eigenvalues --    0.27179   0.27438   0.28365   0.29019   0.29631
 Alpha virt. eigenvalues --    0.30272   0.30550   0.31814   0.32357   0.32956
 Alpha virt. eigenvalues --    0.35687   0.38986   0.39686   0.40071   0.41828
 Alpha virt. eigenvalues --    0.42824   0.43168   0.44241   0.45545   0.46673
 Alpha virt. eigenvalues --    0.51201   0.52780   0.54048   0.54457   0.54673
 Alpha virt. eigenvalues --    0.55866   0.55935   0.59868   0.60561   0.65367
 Alpha virt. eigenvalues --    0.69890   0.71228   0.71672   0.74133   0.74582
 Alpha virt. eigenvalues --    0.75186   0.75547   0.78073   0.78310   0.80575
 Alpha virt. eigenvalues --    0.81729   0.82256   0.82510   0.83361   0.83610
 Alpha virt. eigenvalues --    0.85121   0.85420   0.87078   0.87259   0.90258
 Alpha virt. eigenvalues --    0.93763   0.93927   0.95020   0.96800   0.97390
 Alpha virt. eigenvalues --    0.98293   1.01956   1.03188   1.05737   1.07085
 Alpha virt. eigenvalues --    1.07923   1.10258   1.10450   1.12440   1.16705
 Alpha virt. eigenvalues --    1.22548   1.23434   1.31138   1.44581   1.50292
 Alpha virt. eigenvalues --    1.50450   1.53971   1.55064   1.61169   1.68408
 Alpha virt. eigenvalues --    1.72312   1.74205   1.76497   1.80702   1.84124
 Alpha virt. eigenvalues --    1.86812   1.88604   1.89921   1.94824   2.00297
 Alpha virt. eigenvalues --    2.03243   2.03260   2.05821   2.06596   2.08270
 Alpha virt. eigenvalues --    2.12217   2.12524   2.18424   2.18479   2.28405
 Alpha virt. eigenvalues --    2.49909   2.73557   2.76828   2.79073   2.79083
 Alpha virt. eigenvalues --    2.79702   2.82315   2.83351   2.83585   2.84770
 Alpha virt. eigenvalues --    2.85259   2.88575   2.90535   2.92031   2.92582
 Alpha virt. eigenvalues --    2.92899   2.96475   2.96896   2.97857   3.04073
 Alpha virt. eigenvalues --    3.12776   3.16283   3.20692   3.23286   3.29297
 Alpha virt. eigenvalues --    3.29523   3.53464   3.59903   3.64014   3.70931
 Alpha virt. eigenvalues --    3.73729
          Condensed to atoms (all electrons):
               1          2          3          4          5          6
     1  C    4.424493   0.142204  -0.250616  -0.316723  -0.250472   0.024012
     2  C    0.142204   4.947927  -0.008338   0.037524  -0.008472  -0.449485
     3  F   -0.250616  -0.008338  10.284425  -0.155180  -0.116823  -0.018088
     4  F   -0.316723   0.037524  -0.155180  10.330882  -0.155133  -0.015968
     5  F   -0.250472  -0.008472  -0.116823  -0.155133  10.284305   0.016482
     6  F    0.024012  -0.449485  -0.018088  -0.015968   0.016482  10.371651
     7  Cl  -0.278104   0.348707  -0.015164   0.037107  -0.015154  -0.148817
     8  F    0.024022  -0.448610   0.016472  -0.015929  -0.018134  -0.154802
               7          8
     1  C   -0.278104   0.024022
     2  C    0.348707  -0.448610
     3  F   -0.015164   0.016472
     4  F    0.037107  -0.015929
     5  F   -0.015154  -0.018134
     6  F   -0.148817  -0.154802
     7  Cl  17.670115  -0.148958
     8  F   -0.148958  10.371086
 Mulliken charges:
               1
     1  C    2.481185
     2  C    1.438543
     3  F   -0.736687
     4  F   -0.746580
     5  F   -0.736597
     6  F   -0.624985
     7  Cl  -0.449732
     8  F   -0.625148
 Sum of Mulliken charges =  -0.00000
 Mulliken charges with hydrogens summed into heavy atoms:
               1
     1  C    2.481185
     2  C    1.438543
     3  F   -0.736687
     4  F   -0.746580
     5  F   -0.736597
     6  F   -0.624985
     7  Cl  -0.449732
     8  F   -0.625148
 APT charges:
               1
     1  C    1.468300
     2  C    1.294399
     3  F   -0.486917
     4  F   -0.522553
     5  F   -0.486878
     6  F   -0.507967
     7  Cl  -0.250425
     8  F   -0.507959
 Sum of APT charges =  -0.00000
 APT charges with hydrogens summed into heavy atoms:
               1
     1  C    1.468300
     2  C    1.294399
     3  F   -0.486917
     4  F   -0.522553
     5  F   -0.486878
     6  F   -0.507967
     7  Cl  -0.250425
     8  F   -0.507959
 Electronic spatial extent (au):  <R**2>=            922.0238
 Charge=              0.0000 electrons
 Dipole moment (field-independent basis, Debye):
    X=              0.5407    Y=             -0.3101    Z=             -0.0013  Tot=              0.6233
 Quadrupole moment (field-independent basis, Debye-Ang):
   XX=            -48.6598   YY=            -49.5121   ZZ=            -50.1754
   XY=             -1.3186   XZ=             -0.0010   YZ=             -0.0013
 Traceless Quadrupole moment (field-independent basis, Debye-Ang):
   XX=              0.7893   YY=             -0.0630   ZZ=             -0.7263
   XY=             -1.3186   XZ=             -0.0010   YZ=             -0.0013
 Octapole moment (field-independent basis, Debye-Ang**2):
  XXX=             -7.2153  YYY=              4.1365  ZZZ=              0.0077  XYY=             -1.9580
  XXY=             -2.0856  XXZ=              0.0022  XZZ=             -4.6299  YZZ=              2.0469
  YYZ=              0.0016  XYZ=             -0.0004
 Hexadecapole moment (field-independent basis, Debye-Ang**3):
 XXXX=           -503.3563 YYYY=           -255.3985 ZZZZ=           -179.6077 XXXY=             -0.1020
 XXXZ=              0.0097 YYYX=              4.8746 YYYZ=             -0.0085 ZZZX=              0.0119
 ZZZY=             -0.0076 XXYY=           -122.2959 XXZZ=           -118.2391 YYZZ=            -73.2457
 XXYZ=             -0.0023 YYXZ=              0.0033 ZZXY=              2.8735
 N-N= 5.259719178305D+02 E-N=-3.513177643143D+03  KE= 1.033024455604D+03
  Exact polarizability:      49.452      -4.522      45.990      -0.000       0.000      42.146
 Approx polarizability:      50.312      -5.874      52.224       0.003      -0.002      48.822
 Calling FoFJK, ICntrl=    100127 FMM=F ISym2X=0 I1Cent= 0 IOpClX= 0 NMat=1 NMatS=1 NMatT=0.
 ***** Axes restored to original set *****
 -------------------------------------------------------------------
 Center     Atomic                   Forces (Hartrees/Bohr)
 Number     Number              X              Y              Z
 -------------------------------------------------------------------
      1        6          -0.000588554    0.001043310   -0.052149771
      2        6          -0.006118045    0.010370561    0.039178507
      3        9          -0.018437125    0.000328177    0.017913819
      4        9           0.008840894   -0.015404266    0.017557488
      5        9           0.009023529    0.016095413    0.017915593
      6        9          -0.007172160   -0.017332944   -0.016425281
      7       17          -0.004075775    0.007313993   -0.007538365
      8        9           0.018527236   -0.002414244   -0.016451990
 -------------------------------------------------------------------
 Cartesian Forces:  Max     0.052149771 RMS     0.017929759
 -----------------------------------------------------------------------------------------------
                       Internal Coordinate Forces (Hartree/Bohr or radian)
  Cent   Atom   N1       Length/X         N2         Alpha/Y        N3         Beta/Z          J
 -----------------------------------------------------------------------------------------------
      1  C 
      2  C        1  -0.001237(     1)
      3  F        1  -0.023834(     2)      2  -0.024706(     8)
      4  F        1  -0.023008(     3)      2  -0.024919(     9)      3   0.000002(    14)     0
      5  F        1  -0.023846(     4)      2  -0.024698(    10)      3   0.000783(    15)     0
      6  F        2  -0.023256(     5)      1  -0.022545(    11)      3  -0.004935(    16)     0
      7  Cl       2  -0.010611(     6)      1  -0.012765(    12)      3   0.000310(    17)     0
      8  F        2  -0.023207(     7)      1  -0.022678(    13)      3   0.004630(    18)     0
 -----------------------------------------------------------------------------------------------
 Internal  Forces:  Max     0.024919483 RMS     0.018154982

 GradGradGradGradGradGradGradGradGradGradGradGradGradGradGradGradGradGrad
 Berny optimization.
 Search for a local minimum.
 Step number   1 out of a maximum of   28
 All quantities printed in internal units (Hartrees-Bohrs-Radians)
 Second derivative matrix not updated -- analytic derivatives used.
 The second derivative matrix:
                          r2        r3        a3        r4        a4
           r2           0.28682
           r3           0.01446   0.35431
           a3           0.02924  -0.01926   0.44153
           r4           0.01399   0.05288  -0.04386   0.35440
           a4           0.02625  -0.04456   0.16388  -0.02114   0.43468
           d4           0.00000  -0.06152   0.10596  -0.00000  -0.00001
           r5           0.01446   0.05322  -0.04327   0.05288  -0.04457
           a5           0.02929  -0.04327   0.16776  -0.04386   0.16387
           d5           0.00387   0.06063  -0.10600  -0.06181   0.10656
           r6           0.01439   0.00471   0.00050   0.00464  -0.00121
           a6           0.02471   0.00109   0.00165  -0.00105   0.00060
           d6          -0.00231  -0.00622   0.00028   0.00760  -0.00156
           r7           0.01125   0.00355   0.00323   0.00302   0.01196
           a7           0.03161   0.00256   0.01371   0.01454   0.02670
           d7           0.00001   0.00448  -0.00705  -0.00000  -0.00001
           r8           0.01439   0.00341   0.01691   0.00464  -0.00121
           a8           0.02472   0.01892   0.03724  -0.00105   0.00058
           d8           0.00231   0.00076  -0.00093  -0.00760   0.00156
                          d4        r5        a5        d5        r6
           d4           0.43164
           r5           0.06153   0.35429
           a5          -0.10595  -0.01928   0.44160
           d5          -0.21123   0.00029   0.00831   0.42981
           r6           0.00791   0.00341   0.01691  -0.00009   0.34282
           a6          -0.00089   0.01891   0.03723  -0.00016  -0.00719
           d6           0.00337  -0.00075   0.00095   0.00463  -0.01225
           r7          -0.00000   0.00355   0.00324  -0.00284   0.03902
           a7           0.00000   0.00256   0.01377   0.00804  -0.03517
           d7           0.00171  -0.00448   0.00708   0.00523  -0.05160
           r8          -0.00791   0.00471   0.00050   0.00763   0.05182
           a8           0.00089   0.00108   0.00166  -0.00030  -0.03761
           d8           0.00337   0.00622  -0.00030   0.00114   0.06402
                          a6        d6        r7        a7        d7
           a6           0.40980
           d6           0.01511   0.41518
           r7          -0.03474   0.04719   0.20875
           a7           0.13334  -0.08790  -0.00724   0.39856
           d7           0.08925  -0.17016   0.00024  -0.00010   0.35304
           r8          -0.03761  -0.06401   0.03911  -0.03525   0.05182
           a8           0.14864   0.10535  -0.03485   0.13359  -0.08951
           d8          -0.10527  -0.23654  -0.04743   0.08805  -0.17091
                          r8        a8        d8
           r8           0.34269
           a8          -0.00727   0.40993
           d8           0.01201  -0.01494   0.41594
 ITU=  0
     Eigenvalues ---    0.00891   0.11625   0.13899   0.15047   0.16125
     Eigenvalues ---    0.23736   0.26966   0.29307   0.32116   0.33825
     Eigenvalues ---    0.36109   0.38276   0.44642   0.60979   0.67714
     Eigenvalues ---    0.73852   0.75458   0.82013
 RFO step:  Lambda=-1.18902088D-02 EMin= 8.91342545D-03
 Linear search not attempted -- first point.
 Variable       Old X    -DE/DX   Delta X   Delta X   Delta X     New X
                                 (Linear)    (Quad)   (Total)
    r2        2.89846  -0.00124   0.00000   0.02924   0.02924   2.92770
    r3        2.56493  -0.02383   0.00000  -0.05871  -0.05871   2.50622
    a3        1.95774  -0.02471   0.00000  -0.03238  -0.03238   1.92535
    r4        2.56530  -0.02301   0.00000  -0.05356  -0.05356   2.51175
    a4        1.95093  -0.02492   0.00000  -0.04883  -0.04883   1.90210
    d4        4.19141   0.00000   0.00000   0.00475   0.00475   4.19616
    r5        2.56493  -0.02385   0.00000  -0.05859  -0.05859   2.50634
    a5        1.95774  -0.02470   0.00000  -0.03280  -0.03280   1.92493
    d5        2.09963   0.00078   0.00000   0.01013   0.01013   2.10976
    r6        2.57551  -0.02326   0.00000  -0.05870  -0.05870   2.51680
    a6        1.93295  -0.02255   0.00000  -0.03872  -0.03872   1.89423
    d6        1.06901  -0.00493   0.00000  -0.00904  -0.00904   1.05997
    r7        3.37108  -0.01061   0.00000  -0.03228  -0.03228   3.33880
    a7        1.96105  -0.01276   0.00000  -0.01385  -0.01385   1.94721
    d7        5.23267   0.00031   0.00000  -0.00162  -0.00162   5.23105
    r8        2.57570  -0.02321   0.00000  -0.05894  -0.05894   2.51676
    a8        1.93278  -0.02268   0.00000  -0.03861  -0.03861   1.89417
    d8        3.11506   0.00463   0.00000   0.00387   0.00387   3.11894
         Item               Value     Threshold  Converged?
 Maximum Force            0.024919     0.000002     NO 
 RMS     Force            0.018155     0.000001     NO 
 Maximum Displacement     0.058940     0.000006     NO 
 RMS     Displacement     0.038355     0.000004     NO 
 Predicted change in Energy=-6.102534D-03
 GradGradGradGradGradGradGradGradGradGradGradGradGradGradGradGradGradGrad

 ---------------------------------------------------------------------------------------------------
                            Z-MATRIX (ANGSTROMS AND DEGREES)
   CD    Cent   Atom    N1       Length/X        N2       Alpha/Y        N3        Beta/Z          J
 ---------------------------------------------------------------------------------------------------
      1      1  C 
      2      2  C        1   1.549271(     1)
      3      3  F        1   1.326232(     2)      2  110.315(     8)
      4      4  F        1   1.329159(     3)      2  108.982(     9)      3  240.422(    14)      0
      5      5  F        1   1.326296(     4)      2  110.291(    10)      3  120.881(    15)      0
      6      6  F        2   1.331836(     5)      1  108.532(    11)      3   60.732(    16)      0
      7      7  Cl       2   1.766818(     6)      1  111.567(    12)      3  299.717(    17)      0
      8      8  F        2   1.331810(     7)      1  108.528(    13)      3  178.702(    18)      0
 ---------------------------------------------------------------------------------------------------
                         Z-Matrix orientation:                         
 ---------------------------------------------------------------------
 Center     Atomic      Atomic             Coordinates (Angstroms)
 Number     Number       Type             X           Y           Z
 ---------------------------------------------------------------------
      1          6           0        0.000000    0.000000    0.000000
      2          6           0        0.000000    0.000000    1.549271
      3          9           0        1.243742    0.000000   -0.460433
      4          9           0       -0.620398    1.093091   -0.432344
      5          9           0       -0.638481   -1.067645   -0.459933
      6          9           0        0.617368    1.101574    1.972564
      7         17           0        0.814521   -1.427029    2.198725
      8          9           0       -1.262458    0.028608    1.972473
 ---------------------------------------------------------------------
                    Distance matrix (angstroms):
                    1          2          3          4          5
     1  C    0.000000
     2  C    1.549271   0.000000
     3  F    1.326232   2.363431   0.000000
     4  F    1.329159   2.346602   2.161170   0.000000
     5  F    1.326296   2.363139   2.163938   2.160988   0.000000
     6  F    2.342140   1.331836   2.743226   2.704759   3.492809
     7  Cl   2.744858   1.766818   3.048240   3.915676   3.051038
     8  F    2.342065   1.331810   3.492977   2.707122   2.740022
                    6          7          8
     6  F    0.000000
     7  Cl   2.546341   0.000000
     8  F    2.164487   2.546352   0.000000
 Stoichiometry    C2ClF5
 Framework group  C1[X(C2ClF5)]
 Deg. of freedom    18
 Full point group                 C1      NOp   1
 Largest Abelian subgroup         C1      NOp   1
 Largest concise Abelian subgroup C1      NOp   1
                         Standard orientation:                         
 ---------------------------------------------------------------------
 Center     Atomic      Atomic             Coordinates (Angstroms)
 Number     Number       Type             X           Y           Z
 ---------------------------------------------------------------------
      1          6           0       -0.942992   -0.228453   -0.000104
      2          6           0        0.444020    0.461793   -0.000075
      3          9           0       -1.080450   -0.985645   -1.080224
      4          9           0       -1.890029    0.704164   -0.003292
      5          9           0       -1.082723   -0.980046    1.083706
      6          9           0        0.533158    1.232813   -1.082373
      7         17           0        1.757515   -0.719891    0.000100
      8          9           0        0.532943    1.232948    1.082113
 ---------------------------------------------------------------------
 Rotational constants (GHZ):           2.3597727           1.5169987           1.3683362
 Basis read from rwf:  (5D, 7F)
 There are   204 symmetry adapted cartesian basis functions of A   symmetry.
 There are   188 symmetry adapted basis functions of A   symmetry.
   188 basis functions,   352 primitive gaussians,   204 cartesian basis functions
    37 alpha electrons       37 beta electrons
       nuclear repulsion energy       534.9144779987 Hartrees.
 NAtoms=    8 NActive=    8 NUniq=    8 SFac= 1.00D+00 NAtFMM=   60 NAOKFM=F Big=F
 Integral buffers will be    131072 words long.
 Raffenetti 2 integral format.
 Two-electron integral symmetry is turned on.
 Nuclear repulsion after empirical dispersion term =      534.9120892952 Hartrees.
 One-electron integrals computed using PRISM.
 NBasis=   188 RedAO= T EigKep=  2.55D-04  NBF=   188
 NBsUse=   188 1.00D-06 EigRej= -1.00D+00 NBFU=   188
 Initial guess from the checkpoint file:  "checkpoint.chk"
 B after Tr=     0.000000   -0.000000    0.000000
         Rot=    0.999848    0.000911    0.000273   -0.017395 Ang=   2.00 deg.
 ExpMin= 3.35D-02 ExpMax= 6.35D+04 ExpMxC= 2.17D+03 IAcc=3 IRadAn=         5 AccDes= 0.00D+00
 Harris functional with IExCor= 4639 and IRadAn=       5 diagonalized for initial guess.
 HarFok:  IExCor= 4639 AccDes= 0.00D+00 IRadAn=         5 IDoV= 1 UseB2=F ITyADJ=14
 ICtDFT=  3500011 ScaDFX=  1.000000  1.000000  1.000000  1.000000
 FoFCou: FMM=F IPFlag=           0 FMFlag=      100000 FMFlg1=           0
         NFxFlg=           0 DoJE=T BraDBF=F KetDBF=T FulRan=T
         wScrn=  0.000000 ICntrl=       500 IOpCl=  0 I1Cent=   200000004 NGrid=           0
         NMat0=    1 NMatS0=      1 NMatT0=    0 NMatD0=    1 NMtDS0=    0 NMtDT0=    0
 Petite list used in FoFCou.
 Requested convergence on RMS density matrix=1.00D-08 within 128 cycles.
 Requested convergence on MAX density matrix=1.00D-06.
 Requested convergence on             energy=1.00D-06.
 No special actions if energy rises.
 SCF Done:  E(RwB97XD) =  -1035.38421576     A.U. after   11 cycles
            NFock= 11  Conv=0.48D-08     -V/T= 2.0019
 DoSCS=F DFT=T ScalE2(SS,OS)=  1.000000  1.000000
 Range of M.O.s used for correlation:     1   188
 NBasis=   188 NAE=    37 NBE=    37 NFC=     0 NFV=     0
 NROrb=    188 NOA=    37 NOB=    37 NVA=   151 NVB=   151

 **** Warning!!: The largest alpha MO coefficient is  0.19022588D+02

 Symmetrizing basis deriv contribution to polar:
 IMax=3 JMax=2 DiffMx= 0.00D+00
 G2DrvN: will do     9 centers at a time, making    1 passes.
 Calling FoFCou, ICntrl=  3107 FMM=F I1Cent=   0 AccDes= 0.00D+00.
 End of G2Drv F.D. properties file   721 does not exist.
 End of G2Drv F.D. properties file   722 does not exist.
 End of G2Drv F.D. properties file   788 does not exist.
          IDoAtm=11111111
          Differentiating once with respect to electric field.
                with respect to dipole field.
          Differentiating once with respect to nuclear coordinates.
 CalDSu exits because no D1Ps are significant.
          There are    27 degrees of freedom in the 1st order CPHF.  IDoFFX=6 NUNeed=     3.
     24 vectors produced by pass  0 Test12= 2.07D-14 3.70D-09 XBig12= 1.56D+01 1.35D+00.
 AX will form    24 AO Fock derivatives at one time.
     24 vectors produced by pass  1 Test12= 2.07D-14 3.70D-09 XBig12= 2.46D+00 2.36D-01.
     24 vectors produced by pass  2 Test12= 2.07D-14 3.70D-09 XBig12= 2.52D-01 8.14D-02.
     24 vectors produced by pass  3 Test12= 2.07D-14 3.70D-09 XBig12= 1.39D-02 1.69D-02.
     24 vectors produced by pass  4 Test12= 2.07D-14 3.70D-09 XBig12= 1.38D-04 1.80D-03.
     24 vectors produced by pass  5 Test12= 2.07D-14 3.70D-09 XBig12= 1.06D-06 1.57D-04.
     24 vectors produced by pass  6 Test12= 2.07D-14 3.70D-09 XBig12= 9.92D-09 1.66D-05.
      9 vectors produced by pass  7 Test12= 2.07D-14 3.70D-09 XBig12= 8.80D-11 1.22D-06.
      3 vectors produced by pass  8 Test12= 2.07D-14 3.70D-09 XBig12= 5.27D-13 1.06D-07.
      1 vectors produced by pass  9 Test12= 2.07D-14 3.70D-09 XBig12= 3.04D-15 5.79D-09.
 InvSVY:  IOpt=1 It=  1 EMax= 3.55D-15
 Solved reduced A of dimension   181 with    27 vectors.
 Isotropic polarizability for W=    0.000000       44.69 Bohr**3.
 End of Minotr F.D. properties file   721 does not exist.
 End of Minotr F.D. properties file   722 does not exist.
 End of Minotr F.D. properties file   788 does not exist.
 Calling FoFJK, ICntrl=    100127 FMM=F ISym2X=0 I1Cent= 0 IOpClX= 0 NMat=1 NMatS=1 NMatT=0.
 ***** Axes restored to original set *****
 -------------------------------------------------------------------
 Center     Atomic                   Forces (Hartrees/Bohr)
 Number     Number              X              Y              Z
 -------------------------------------------------------------------
      1        6           0.000057011   -0.000249775    0.001186815
      2        6           0.000855557   -0.001451013   -0.000370184
      3        9           0.002039632    0.000109389   -0.000990550
      4        9          -0.000910165    0.001653199   -0.000786229
      5        9          -0.001085404   -0.001726479   -0.000988229
      6        9           0.000987559    0.001756833    0.000917497
      7       17           0.000078047   -0.000158716    0.000110499
      8        9          -0.002022236    0.000066563    0.000920382
 -------------------------------------------------------------------
 Cartesian Forces:  Max     0.002039632 RMS     0.001095539
 -----------------------------------------------------------------------------------------------
                       Internal Coordinate Forces (Hartree/Bohr or radian)
  Cent   Atom   N1       Length/X         N2         Alpha/Y        N3         Beta/Z          J
 -----------------------------------------------------------------------------------------------
      1  C 
      2  C        1   0.001578(     1)
      3  F        1   0.002257(     2)      2   0.000553(     8)
      4  F        1   0.002040(     3)      2   0.000326(     9)      3   0.000058(    14)     0
      5  F        1   0.002255(     4)      2   0.000551(    10)      3   0.000107(    15)     0
      6  F        2   0.002202(     5)      1   0.000577(    11)      3  -0.000006(    16)     0
      7  Cl       2   0.000205(     6)      1   0.000126(    12)      3  -0.000034(    17)     0
      8  F        2   0.002211(     7)      1   0.000578(    13)      3  -0.000049(    18)     0
 -----------------------------------------------------------------------------------------------
 Internal  Forces:  Max     0.002256661 RMS     0.001247870

 GradGradGradGradGradGradGradGradGradGradGradGradGradGradGradGradGradGrad
 Berny optimization.
 Search for a local minimum.
 Step number   2 out of a maximum of   28
 All quantities printed in internal units (Hartrees-Bohrs-Radians)
 Second derivative matrix not updated -- analytic derivatives used.
 DE= -5.77D-03 DEPred=-6.10D-03 R= 9.45D-01
 TightC=F SS=  1.41D+00  RLast= 1.63D-01 DXNew= 5.0454D-01 4.8818D-01
 Trust test= 9.45D-01 RLast= 1.63D-01 DXMaxT set to 4.88D-01
 The second derivative matrix:
                          r2        r3        a3        r4        a4
           r2           0.27881
           r3           0.01764   0.43680
           a3           0.03600  -0.00276   0.46059
           r4           0.01728   0.05573  -0.04074   0.43055
           a4           0.03507  -0.04229   0.15951  -0.00380   0.45896
           d4          -0.00007  -0.06414   0.10390   0.00009  -0.00013
           r5           0.01764   0.05583  -0.04133   0.05576  -0.04229
           a5           0.03599  -0.04135   0.16652  -0.04076   0.15949
           d5           0.00365   0.06191  -0.10626  -0.06428   0.10826
           r6           0.01702   0.00540  -0.00005   0.00521  -0.00166
           a6           0.03219   0.00069   0.00242  -0.00180   0.00236
           d6          -0.00298  -0.00739   0.00040   0.00932  -0.00258
           r7           0.01215   0.00389   0.00355   0.00385   0.01362
           a7           0.03394   0.00200   0.01454   0.01667   0.02909
           d7          -0.00007   0.00553  -0.00740   0.00001   0.00001
           r8           0.01702   0.00521   0.02064   0.00521  -0.00159
           a8           0.03220   0.02236   0.04327  -0.00173   0.00221
           d8           0.00282   0.00038  -0.00211  -0.00933   0.00245
                          d4        r5        a5        d5        r6
           d4           0.45767
           r5           0.06422   0.43670
           a5          -0.10394  -0.00274   0.46069
           d5          -0.22299  -0.00045   0.00703   0.44750
           r6           0.00941   0.00521   0.02064   0.00019   0.42276
           a6          -0.00220   0.02236   0.04327   0.00061   0.00938
           d6           0.00489  -0.00036   0.00212   0.00472  -0.00973
           r7           0.00001   0.00389   0.00356  -0.00334   0.04116
           a7           0.00001   0.00204   0.01431   0.00834  -0.03371
           d7           0.00168  -0.00553   0.00727   0.00551  -0.05377
           r8          -0.00943   0.00540  -0.00014   0.00916   0.05424
           a8           0.00207   0.00060   0.00254  -0.00027  -0.03339
           d8           0.00485   0.00738  -0.00053   0.00172   0.06386
                          a6        d6        r7        a7        d7
           a6           0.43683
           d6           0.01013   0.43141
           r7          -0.03600   0.04925   0.23121
           a7           0.13272  -0.08706  -0.00132   0.40645
           d7           0.09199  -0.17839  -0.00001  -0.00015   0.37110
           r8          -0.03339  -0.06386   0.04116  -0.03371   0.05377
           a8           0.14220   0.10371  -0.03599   0.13271  -0.09196
           d8          -0.10366  -0.24269  -0.04925   0.08706  -0.17839
                          r8        a8        d8
           r8           0.42282
           a8           0.00937   0.43682
           d8           0.00974  -0.01043   0.43143
 ITU=  1  0
     Eigenvalues ---    0.01071   0.13107   0.15465   0.17448   0.18669
     Eigenvalues ---    0.25179   0.27175   0.36172   0.38462   0.40101
     Eigenvalues ---    0.41974   0.46560   0.53592   0.64171   0.69340
     Eigenvalues ---    0.76520   0.77339   0.83567
 RFO step:  Lambda=-2.14233207D-05 EMin= 1.07126645D-02
 Quintic linear search produced a step of -0.05091.
 Variable       Old X    -DE/DX   Delta X   Delta X   Delta X     New X
                                 (Linear)    (Quad)   (Total)
    r2        2.92770   0.00158  -0.00149   0.00594   0.00445   2.93215
    r3        2.50622   0.00226   0.00299   0.00115   0.00414   2.51036
    a3        1.92535   0.00055   0.00165  -0.00099   0.00066   1.92602
    r4        2.51175   0.00204   0.00273   0.00098   0.00371   2.51546
    a4        1.90210   0.00033   0.00249  -0.00211   0.00038   1.90248
    d4        4.19616   0.00006  -0.00024   0.00086   0.00061   4.19677
    r5        2.50634   0.00225   0.00298   0.00102   0.00400   2.51034
    a5        1.92493   0.00055   0.00167  -0.00055   0.00112   1.92606
    d5        2.10976   0.00011  -0.00052   0.00104   0.00053   2.11029
    r6        2.51680   0.00220   0.00299   0.00165   0.00464   2.52145
    a6        1.89423   0.00058   0.00197  -0.00165   0.00033   1.89456
    d6        1.05997  -0.00001   0.00046  -0.00323  -0.00277   1.05720
    r7        3.33880   0.00020   0.00164  -0.00319  -0.00155   3.33725
    a7        1.94721   0.00013   0.00070  -0.00029   0.00042   1.94762
    d7        5.23105  -0.00003   0.00008  -0.00347  -0.00339   5.22766
    r8        2.51676   0.00221   0.00300   0.00168   0.00468   2.52144
    a8        1.89417   0.00058   0.00197  -0.00155   0.00042   1.89459
    d8        3.11894  -0.00005  -0.00020  -0.00386  -0.00406   3.11488
         Item               Value     Threshold  Converged?
 Maximum Force            0.002257     0.000002     NO 
 RMS     Force            0.001248     0.000001     NO 
 Maximum Displacement     0.004684     0.000006     NO 
 RMS     Displacement     0.002898     0.000004     NO 
 Predicted change in Energy=-2.687076D-05
 GradGradGradGradGradGradGradGradGradGradGradGradGradGradGradGradGradGrad

 ---------------------------------------------------------------------------------------------------
                            Z-MATRIX (ANGSTROMS AND DEGREES)
   CD    Cent   Atom    N1       Length/X        N2       Alpha/Y        N3        Beta/Z          J
 ---------------------------------------------------------------------------------------------------
      1      1  C 
      2      2  C        1   1.551627(     1)
      3      3  F        1   1.328424(     2)      2  110.353(     8)
      4      4  F        1   1.331123(     3)      2  109.004(     9)      3  240.457(    14)      0
      5      5  F        1   1.328415(     4)      2  110.355(    10)      3  120.911(    15)      0
      6      6  F        2   1.334292(     5)      1  108.550(    11)      3   60.573(    16)      0
      7      7  Cl       2   1.765999(     6)      1  111.591(    12)      3  299.523(    17)      0
      8      8  F        2   1.334289(     7)      1  108.552(    13)      3  178.469(    18)      0
 ---------------------------------------------------------------------------------------------------
                         Z-Matrix orientation:                         
 ---------------------------------------------------------------------
 Center     Atomic      Atomic             Coordinates (Angstroms)
 Number     Number       Type             X           Y           Z
 ---------------------------------------------------------------------
      1          6           0        0.000000    0.000000    0.000000
      2          6           0        0.000000    0.000000    1.551627
      3          9           0        1.245491    0.000000   -0.462020
      4          9           0       -0.620563    1.094945   -0.433457
      5          9           0       -0.639798   -1.068568   -0.462069
      6          9           0        0.621492    1.101769    1.976112
      7         17           0        0.809175   -1.428881    2.201463
      8          9           0       -1.264503    0.033789    1.976147
 ---------------------------------------------------------------------
                    Distance matrix (angstroms):
                    1          2          3          4          5
     1  C    0.000000
     2  C    1.551627   0.000000
     3  F    1.328424   2.367704   0.000000
     4  F    1.331123   2.350438   2.163765   0.000000
     5  F    1.328415   2.367731   2.167060   2.163787   0.000000
     6  F    2.346309   1.334292   2.747319   2.710862   3.499420
     7  Cl   2.746435   1.765999   3.053885   3.918756   3.053482
     8  F    2.346330   1.334289   3.499410   2.710516   2.747789
                    6          7          8
     6  F    0.000000
     7  Cl   2.547586   0.000000
     8  F    2.167385   2.547609   0.000000
 Stoichiometry    C2ClF5
 Framework group  C1[X(C2ClF5)]
 Deg. of freedom    18
 Full point group                 C1      NOp   1
 Largest Abelian subgroup         C1      NOp   1
 Largest concise Abelian subgroup C1      NOp   1
                         Standard orientation:                         
 ---------------------------------------------------------------------
 Center     Atomic      Atomic             Coordinates (Angstroms)
 Number     Number       Type             X           Y           Z
 ---------------------------------------------------------------------
      1          6           0       -0.944259   -0.227096    0.000016
      2          6           0        0.446712    0.460468    0.000014
      3          9           0       -1.086482   -0.982015   -1.083765
      4          9           0       -1.890540    0.709087    0.000459
      5          9           0       -1.086158   -0.982779    1.083296
      6          9           0        0.538120    1.233481   -1.083697
      7         17           0        1.756916   -0.723643   -0.000001
      8          9           0        0.538139    1.233526    1.083688
 ---------------------------------------------------------------------
 Rotational constants (GHZ):           2.3534888           1.5130702           1.3648578
 Basis read from rwf:  (5D, 7F)
 There are   204 symmetry adapted cartesian basis functions of A   symmetry.
 There are   188 symmetry adapted basis functions of A   symmetry.
   188 basis functions,   352 primitive gaussians,   204 cartesian basis functions
    37 alpha electrons       37 beta electrons
       nuclear repulsion energy       534.2176743652 Hartrees.
 NAtoms=    8 NActive=    8 NUniq=    8 SFac= 1.00D+00 NAtFMM=   60 NAOKFM=F Big=F
 Integral buffers will be    131072 words long.
 Raffenetti 2 integral format.
 Two-electron integral symmetry is turned on.
 Nuclear repulsion after empirical dispersion term =      534.2152765285 Hartrees.
 One-electron integrals computed using PRISM.
 NBasis=   188 RedAO= T EigKep=  2.57D-04  NBF=   188
 NBsUse=   188 1.00D-06 EigRej= -1.00D+00 NBFU=   188
 Initial guess from the checkpoint file:  "checkpoint.chk"
 B after Tr=     0.000000    0.000000    0.000000
         Rot=    0.999999   -0.000618   -0.000172    0.001184 Ang=  -0.15 deg.
 Requested convergence on RMS density matrix=1.00D-08 within 128 cycles.
 Requested convergence on MAX density matrix=1.00D-06.
 Requested convergence on             energy=1.00D-06.
 No special actions if energy rises.
 SCF Done:  E(RwB97XD) =  -1035.38424305     A.U. after    9 cycles
            NFock=  9  Conv=0.52D-08     -V/T= 2.0019
 DoSCS=F DFT=T ScalE2(SS,OS)=  1.000000  1.000000
 Range of M.O.s used for correlation:     1   188
 NBasis=   188 NAE=    37 NBE=    37 NFC=     0 NFV=     0
 NROrb=    188 NOA=    37 NOB=    37 NVA=   151 NVB=   151

 **** Warning!!: The largest alpha MO coefficient is  0.18906213D+02

 Symmetrizing basis deriv contribution to polar:
 IMax=3 JMax=2 DiffMx= 0.00D+00
 G2DrvN: will do     9 centers at a time, making    1 passes.
 Calling FoFCou, ICntrl=  3107 FMM=F I1Cent=   0 AccDes= 0.00D+00.
 End of G2Drv F.D. properties file   721 does not exist.
 End of G2Drv F.D. properties file   722 does not exist.
 End of G2Drv F.D. properties file   788 does not exist.
          IDoAtm=11111111
          Differentiating once with respect to electric field.
                with respect to dipole field.
          Differentiating once with respect to nuclear coordinates.
 CalDSu exits because no D1Ps are significant.
          There are    27 degrees of freedom in the 1st order CPHF.  IDoFFX=6 NUNeed=     3.
     24 vectors produced by pass  0 Test12= 2.07D-14 3.70D-09 XBig12= 1.56D+01 1.34D+00.
 AX will form    24 AO Fock derivatives at one time.
     24 vectors produced by pass  1 Test12= 2.07D-14 3.70D-09 XBig12= 2.47D+00 2.36D-01.
     24 vectors produced by pass  2 Test12= 2.07D-14 3.70D-09 XBig12= 2.55D-01 8.10D-02.
     24 vectors produced by pass  3 Test12= 2.07D-14 3.70D-09 XBig12= 1.41D-02 1.68D-02.
     24 vectors produced by pass  4 Test12= 2.07D-14 3.70D-09 XBig12= 1.39D-04 1.82D-03.
     24 vectors produced by pass  5 Test12= 2.07D-14 3.70D-09 XBig12= 1.12D-06 1.63D-04.
     24 vectors produced by pass  6 Test12= 2.07D-14 3.70D-09 XBig12= 1.07D-08 1.80D-05.
      9 vectors produced by pass  7 Test12= 2.07D-14 3.70D-09 XBig12= 9.99D-11 1.38D-06.
      3 vectors produced by pass  8 Test12= 2.07D-14 3.70D-09 XBig12= 6.10D-13 1.15D-07.
      1 vectors produced by pass  9 Test12= 2.07D-14 3.70D-09 XBig12= 3.55D-15 6.09D-09.
 InvSVY:  IOpt=1 It=  1 EMax= 1.78D-15
 Solved reduced A of dimension   181 with    27 vectors.
 Isotropic polarizability for W=    0.000000       44.77 Bohr**3.
 End of Minotr F.D. properties file   721 does not exist.
 End of Minotr F.D. properties file   722 does not exist.
 End of Minotr F.D. properties file   788 does not exist.
 Calling FoFJK, ICntrl=    100127 FMM=F ISym2X=0 I1Cent= 0 IOpClX= 0 NMat=1 NMatS=1 NMatT=0.
 ***** Axes restored to original set *****
 -------------------------------------------------------------------
 Center     Atomic                   Forces (Hartrees/Bohr)
 Number     Number              X              Y              Z
 -------------------------------------------------------------------
      1        6          -0.000027700    0.000064949    0.000110963
      2        6           0.000003587    0.000002155   -0.000126948
      3        9          -0.000029606   -0.000015451    0.000004913
      4        9           0.000012666   -0.000027855   -0.000006796
      5        9           0.000020312    0.000020257    0.000002475
      6        9          -0.000017571   -0.000018468    0.000000328
      7       17           0.000013151   -0.000024735    0.000015208
      8        9           0.000025159   -0.000000851   -0.000000143
 -------------------------------------------------------------------
 Cartesian Forces:  Max     0.000126948 RMS     0.000040147
 -----------------------------------------------------------------------------------------------
                       Internal Coordinate Forces (Hartree/Bohr or radian)
  Cent   Atom   N1       Length/X         N2         Alpha/Y        N3         Beta/Z          J
 -----------------------------------------------------------------------------------------------
      1  C 
      2  C        1  -0.000112(     1)
      3  F        1  -0.000029(     2)      2   0.000014(     8)
      4  F        1  -0.000027(     3)      2   0.000041(     9)      3  -0.000006(    14)     0
      5  F        1  -0.000027(     4)      2   0.000018(    10)      3  -0.000017(    15)     0
      6  F        2  -0.000023(     5)      1   0.000021(    11)      3   0.000015(    16)     0
      7  Cl       2   0.000032(     6)      1   0.000013(    12)      3  -0.000002(    17)     0
      8  F        2  -0.000024(     7)      1   0.000020(    13)      3   0.000000(    18)     0
 -----------------------------------------------------------------------------------------------
 Internal  Forces:  Max     0.000111555 RMS     0.000033850

 GradGradGradGradGradGradGradGradGradGradGradGradGradGradGradGradGradGrad
 Berny optimization.
 Search for a local minimum.
 Step number   3 out of a maximum of   28
 All quantities printed in internal units (Hartrees-Bohrs-Radians)
 Second derivative matrix not updated -- analytic derivatives used.
 DE= -2.73D-05 DEPred=-2.69D-05 R= 1.02D+00
 TightC=F SS=  1.41D+00  RLast= 1.23D-02 DXNew= 8.2102D-01 3.6889D-02
 Trust test= 1.02D+00 RLast= 1.23D-02 DXMaxT set to 4.88D-01
 The second derivative matrix:
                          r2        r3        a3        r4        a4
           r2           0.27493
           r3           0.01734   0.43010
           a3           0.03535  -0.00306   0.45754
           r4           0.01705   0.05531  -0.04054   0.42459
           a4           0.03459  -0.04209   0.15883  -0.00398   0.45645
           d4           0.00001  -0.06369   0.10339  -0.00001   0.00002
           r5           0.01734   0.05533  -0.04111   0.05531  -0.04209
           a5           0.03535  -0.04111   0.16576  -0.04053   0.15883
           d5           0.00369   0.06129  -0.10572  -0.06373   0.10777
           r6           0.01680   0.00540  -0.00002   0.00522  -0.00155
           a6           0.03168   0.00071   0.00244  -0.00170   0.00221
           d6          -0.00288  -0.00733   0.00041   0.00925  -0.00243
           r7           0.01210   0.00389   0.00352   0.00383   0.01360
           a7           0.03371   0.00207   0.01421   0.01661   0.02914
           d7           0.00001   0.00548  -0.00713  -0.00000  -0.00000
           r8           0.01680   0.00514   0.02047   0.00522  -0.00157
           a8           0.03168   0.02219   0.04299  -0.00171   0.00223
           d8           0.00290   0.00039  -0.00205  -0.00925   0.00245
                          d4        r5        a5        d5        r6
           d4           0.45509
           r5           0.06368   0.43012
           a5          -0.10338  -0.00306   0.45754
           d5          -0.22163  -0.00055   0.00708   0.44443
           r6           0.00935   0.00514   0.02047   0.00017   0.41585
           a6          -0.00203   0.02219   0.04299   0.00057   0.00888
           d6           0.00478  -0.00039   0.00205   0.00469  -0.00944
           r7          -0.00000   0.00389   0.00352  -0.00334   0.04098
           a7          -0.00000   0.00206   0.01424   0.00820  -0.03369
           d7           0.00166  -0.00548   0.00714   0.00544  -0.05361
           r8          -0.00934   0.00540  -0.00001   0.00908   0.05376
           a8           0.00205   0.00072   0.00242  -0.00013  -0.03322
           d8           0.00478   0.00733  -0.00039   0.00164   0.06341
                          a6        d6        r7        a7        d7
           a6           0.43404
           d6           0.00989   0.42960
           r7          -0.03583   0.04902   0.23155
           a7           0.13252  -0.08684  -0.00142   0.40508
           d7           0.09182  -0.17785  -0.00000   0.00002   0.36979
           r8          -0.03322  -0.06341   0.04098  -0.03369   0.05360
           a8           0.14141   0.10311  -0.03583   0.13252  -0.09182
           d8          -0.10312  -0.24155  -0.04902   0.08683  -0.17783
                          r8        a8        d8
           r8           0.41585
           a8           0.00888   0.43404
           d8           0.00944  -0.00985   0.42958
 ITU=  1  1  0
     Eigenvalues ---    0.01058   0.12993   0.15416   0.17265   0.18462
     Eigenvalues ---    0.24901   0.27015   0.35725   0.38079   0.39550
     Eigenvalues ---    0.41381   0.45888   0.52887   0.63941   0.69060
     Eigenvalues ---    0.76075   0.76851   0.83074
 RFO step:  Lambda=-5.69921571D-08 EMin= 1.05774116D-02
 Quintic linear search produced a step of -0.01918.
 Variable       Old X    -DE/DX   Delta X   Delta X   Delta X     New X
                                 (Linear)    (Quad)   (Total)
    r2        2.93215  -0.00011  -0.00009  -0.00035  -0.00043   2.93171
    r3        2.51036  -0.00003  -0.00008   0.00005  -0.00003   2.51033
    a3        1.92602   0.00001  -0.00001   0.00003   0.00001   1.92603
    r4        2.51546  -0.00003  -0.00007   0.00001  -0.00006   2.51540
    a4        1.90248   0.00004  -0.00001   0.00015   0.00015   1.90262
    d4        4.19677  -0.00001  -0.00001  -0.00009  -0.00010   4.19667
    r5        2.51034  -0.00003  -0.00008   0.00007  -0.00001   2.51033
    a5        1.92606   0.00002  -0.00002  -0.00001  -0.00003   1.92603
    d5        2.11029  -0.00002  -0.00001  -0.00012  -0.00013   2.11016
    r6        2.52145  -0.00002  -0.00009   0.00004  -0.00005   2.52139
    a6        1.89456   0.00002  -0.00001   0.00010   0.00009   1.89465
    d6        1.05720   0.00001   0.00005   0.00041   0.00046   1.05767
    r7        3.33725   0.00003   0.00003   0.00017   0.00020   3.33746
    a7        1.94762   0.00001  -0.00001   0.00000  -0.00000   1.94762
    d7        5.22766  -0.00000   0.00006   0.00039   0.00046   5.22812
    r8        2.52144  -0.00002  -0.00009   0.00004  -0.00005   2.52139
    a8        1.89459   0.00002  -0.00001   0.00007   0.00006   1.89465
    d8        3.11488   0.00000   0.00008   0.00043   0.00051   3.11539
         Item               Value     Threshold  Converged?
 Maximum Force            0.000112     0.000002     NO 
 RMS     Force            0.000034     0.000001     NO 
 Maximum Displacement     0.000508     0.000006     NO 
 RMS     Displacement     0.000233     0.000004     NO 
 Predicted change in Energy=-3.869866D-08
 GradGradGradGradGradGradGradGradGradGradGradGradGradGradGradGradGradGrad

 ---------------------------------------------------------------------------------------------------
                            Z-MATRIX (ANGSTROMS AND DEGREES)
   CD    Cent   Atom    N1       Length/X        N2       Alpha/Y        N3        Beta/Z          J
 ---------------------------------------------------------------------------------------------------
      1      1  C 
      2      2  C        1   1.551397(     1)
      3      3  F        1   1.328409(     2)      2  110.353(     8)
      4      4  F        1   1.331092(     3)      2  109.012(     9)      3  240.452(    14)      0
      5      5  F        1   1.328409(     4)      2  110.353(    10)      3  120.903(    15)      0
      6      6  F        2   1.334264(     5)      1  108.555(    11)      3   60.600(    16)      0
      7      7  Cl       2   1.766105(     6)      1  111.590(    12)      3  299.549(    17)      0
      8      8  F        2   1.334265(     7)      1  108.555(    13)      3  178.498(    18)      0
 ---------------------------------------------------------------------------------------------------
                         Z-Matrix orientation:                         
 ---------------------------------------------------------------------
 Center     Atomic      Atomic             Coordinates (Angstroms)
 Number     Number       Type             X           Y           Z
 ---------------------------------------------------------------------
      1          6           0        0.000000    0.000000    0.000000
      2          6           0        0.000000    0.000000    1.551397
      3          9           0        1.245470    0.000000   -0.462032
      4          9           0       -0.620628    1.094801   -0.433632
      5          9           0       -0.639662   -1.068657   -0.462033
      6          9           0        0.620951    1.101999    1.975988
      7         17           0        0.809876   -1.428601    2.201265
      8          9           0       -1.264471    0.033145    1.975986
 ---------------------------------------------------------------------
                    Distance matrix (angstroms):
                    1          2          3          4          5
     1  C    0.000000
     2  C    1.551397   0.000000
     3  F    1.328409   2.367507   0.000000
     4  F    1.331092   2.350342   2.163728   0.000000
     5  F    1.328409   2.367508   2.166969   2.163729   0.000000
     6  F    2.346170   1.334264   2.747430   2.710690   3.499263
     7  Cl   2.746337   1.766105   3.053489   3.918748   3.053503
     8  F    2.346169   1.334265   3.499262   2.710702   2.747415
                    6          7          8
     6  F    0.000000
     7  Cl   2.547622   0.000000
     8  F    2.167318   2.547620   0.000000
 Stoichiometry    C2ClF5
 Framework group  C1[X(C2ClF5)]
 Deg. of freedom    18
 Full point group                 C1      NOp   1
 Largest Abelian subgroup         C1      NOp   1
 Largest concise Abelian subgroup C1      NOp   1
                         Standard orientation:                         
 ---------------------------------------------------------------------
 Center     Atomic      Atomic             Coordinates (Angstroms)
 Number     Number       Type             X           Y           Z
 ---------------------------------------------------------------------
      1          6           0       -0.944160   -0.227078   -0.000000
      2          6           0        0.446538    0.460519   -0.000000
      3          9           0       -1.086102   -0.982458   -1.083478
      4          9           0       -1.890648    0.708853   -0.000014
      5          9           0       -1.086113   -0.982437    1.083491
      6          9           0        0.537983    1.233556   -1.083657
      7         17           0        1.756930   -0.723543   -0.000001
      8          9           0        0.537983    1.233550    1.083661
 ---------------------------------------------------------------------
 Rotational constants (GHZ):           2.3535878           1.5131815           1.3649336
 Basis read from rwf:  (5D, 7F)
 There are   204 symmetry adapted cartesian basis functions of A   symmetry.
 There are   188 symmetry adapted basis functions of A   symmetry.
   188 basis functions,   352 primitive gaussians,   204 cartesian basis functions
    37 alpha electrons       37 beta electrons
       nuclear repulsion energy       534.2316922982 Hartrees.
 NAtoms=    8 NActive=    8 NUniq=    8 SFac= 1.00D+00 NAtFMM=   60 NAOKFM=F Big=F
 Integral buffers will be    131072 words long.
 Raffenetti 2 integral format.
 Two-electron integral symmetry is turned on.
 Nuclear repulsion after empirical dispersion term =      534.2292947212 Hartrees.
 One-electron integrals computed using PRISM.
 NBasis=   188 RedAO= T EigKep=  2.57D-04  NBF=   188
 NBsUse=   188 1.00D-06 EigRej= -1.00D+00 NBFU=   188
 Initial guess from the checkpoint file:  "checkpoint.chk"
 B after Tr=    -0.000000    0.000000   -0.000000
         Rot=    1.000000    0.000070    0.000022   -0.000048 Ang=   0.01 deg.
 Requested convergence on RMS density matrix=1.00D-08 within 128 cycles.
 Requested convergence on MAX density matrix=1.00D-06.
 Requested convergence on             energy=1.00D-06.
 No special actions if energy rises.
 SCF Done:  E(RwB97XD) =  -1035.38424308     A.U. after    7 cycles
            NFock=  7  Conv=0.41D-08     -V/T= 2.0019
 DoSCS=F DFT=T ScalE2(SS,OS)=  1.000000  1.000000
 Range of M.O.s used for correlation:     1   188
 NBasis=   188 NAE=    37 NBE=    37 NFC=     0 NFV=     0
 NROrb=    188 NOA=    37 NOB=    37 NVA=   151 NVB=   151

 **** Warning!!: The largest alpha MO coefficient is  0.18908668D+02

 Symmetrizing basis deriv contribution to polar:
 IMax=3 JMax=2 DiffMx= 0.00D+00
 G2DrvN: will do     9 centers at a time, making    1 passes.
 Calling FoFCou, ICntrl=  3107 FMM=F I1Cent=   0 AccDes= 0.00D+00.
 End of G2Drv F.D. properties file   721 does not exist.
 End of G2Drv F.D. properties file   722 does not exist.
 End of G2Drv F.D. properties file   788 does not exist.
          IDoAtm=11111111
          Differentiating once with respect to electric field.
                with respect to dipole field.
          Differentiating once with respect to nuclear coordinates.
 CalDSu exits because no D1Ps are significant.
          There are    27 degrees of freedom in the 1st order CPHF.  IDoFFX=6 NUNeed=     3.
     24 vectors produced by pass  0 Test12= 2.07D-14 3.70D-09 XBig12= 1.56D+01 1.34D+00.
 AX will form    24 AO Fock derivatives at one time.
     24 vectors produced by pass  1 Test12= 2.07D-14 3.70D-09 XBig12= 2.47D+00 2.37D-01.
     24 vectors produced by pass  2 Test12= 2.07D-14 3.70D-09 XBig12= 2.55D-01 8.10D-02.
     24 vectors produced by pass  3 Test12= 2.07D-14 3.70D-09 XBig12= 1.41D-02 1.68D-02.
     24 vectors produced by pass  4 Test12= 2.07D-14 3.70D-09 XBig12= 1.40D-04 1.82D-03.
     24 vectors produced by pass  5 Test12= 2.07D-14 3.70D-09 XBig12= 1.12D-06 1.63D-04.
     24 vectors produced by pass  6 Test12= 2.07D-14 3.70D-09 XBig12= 1.07D-08 1.80D-05.
      9 vectors produced by pass  7 Test12= 2.07D-14 3.70D-09 XBig12= 1.00D-10 1.38D-06.
      3 vectors produced by pass  8 Test12= 2.07D-14 3.70D-09 XBig12= 6.11D-13 1.15D-07.
      1 vectors produced by pass  9 Test12= 2.07D-14 3.70D-09 XBig12= 3.56D-15 6.09D-09.
 InvSVY:  IOpt=1 It=  1 EMax= 1.05D-15
 Solved reduced A of dimension   181 with    27 vectors.
 Isotropic polarizability for W=    0.000000       44.77 Bohr**3.
 End of Minotr F.D. properties file   721 does not exist.
 End of Minotr F.D. properties file   722 does not exist.
 End of Minotr F.D. properties file   788 does not exist.
 Calling FoFJK, ICntrl=    100127 FMM=F ISym2X=0 I1Cent= 0 IOpClX= 0 NMat=1 NMatS=1 NMatT=0.
 ***** Axes restored to original set *****
 -------------------------------------------------------------------
 Center     Atomic                   Forces (Hartrees/Bohr)
 Number     Number              X              Y              Z
 -------------------------------------------------------------------
      1        6          -0.000017319    0.000030842   -0.000000161
      2        6           0.000016863   -0.000030964    0.000000073
      3        9          -0.000000052    0.000000058   -0.000000059
      4        9          -0.000000019   -0.000000188    0.000000068
      5        9           0.000000173    0.000000253    0.000000223
      6        9           0.000000058   -0.000000240   -0.000000104
      7       17           0.000000114    0.000000050    0.000000010
      8        9           0.000000182    0.000000189   -0.000000050
 -------------------------------------------------------------------
 Cartesian Forces:  Max     0.000030964 RMS     0.000010195
 -----------------------------------------------------------------------------------------------
                       Internal Coordinate Forces (Hartree/Bohr or radian)
  Cent   Atom   N1       Length/X         N2         Alpha/Y        N3         Beta/Z          J
 -----------------------------------------------------------------------------------------------
      1  C 
      2  C        1  -0.000000(     1)
      3  F        1  -0.000000(     2)      2   0.000000(     8)
      4  F        1  -0.000000(     3)      2  -0.000000(     9)      3  -0.000000(    14)     0
      5  F        1  -0.000000(     4)      2  -0.000000(    10)      3  -0.000000(    15)     0
      6  F        2  -0.000000(     5)      1  -0.000000(    11)      3  -0.000000(    16)     0
      7  Cl       2   0.000000(     6)      1   0.000000(    12)      3   0.000000(    17)     0
      8  F        2  -0.000000(     7)      1   0.000000(    13)      3  -0.000000(    18)     0
 -----------------------------------------------------------------------------------------------
 Internal  Forces:  Max     0.000000463 RMS     0.000000229

 GradGradGradGradGradGradGradGradGradGradGradGradGradGradGradGradGradGrad
 Berny optimization.
 Search for a local minimum.
 Step number   4 out of a maximum of   28
 All quantities printed in internal units (Hartrees-Bohrs-Radians)
 Second derivative matrix not updated -- analytic derivatives used.
 DE= -2.87D-08 DEPred=-3.87D-08 R= 7.43D-01
 Trust test= 7.43D-01 RLast= 9.90D-04 DXMaxT set to 4.88D-01
 The second derivative matrix:
                          r2        r3        a3        r4        a4
           r2           0.27524
           r3           0.01735   0.43017
           a3           0.03538  -0.00306   0.45766
           r4           0.01705   0.05532  -0.04055   0.42469
           a4           0.03458  -0.04210   0.15887  -0.00400   0.45648
           d4          -0.00000  -0.06369   0.10342  -0.00000  -0.00000
           r5           0.01735   0.05534  -0.04111   0.05532  -0.04210
           a5           0.03538  -0.04111   0.16578  -0.04055   0.15887
           d5           0.00369   0.06132  -0.10573  -0.06374   0.10777
           r6           0.01681   0.00540  -0.00002   0.00521  -0.00156
           a6           0.03168   0.00071   0.00244  -0.00171   0.00222
           d6          -0.00289  -0.00733   0.00041   0.00925  -0.00244
           r7           0.01210   0.00389   0.00352   0.00383   0.01359
           a7           0.03372   0.00206   0.01425   0.01661   0.02913
           d7          -0.00000   0.00548  -0.00715   0.00000   0.00000
           r8           0.01681   0.00514   0.02046   0.00521  -0.00156
           a8           0.03168   0.02219   0.04299  -0.00171   0.00221
           d8           0.00289   0.00039  -0.00205  -0.00925   0.00244
                          d4        r5        a5        d5        r6
           d4           0.45509
           r5           0.06369   0.43017
           a5          -0.10342  -0.00306   0.45766
           d5          -0.22164  -0.00053   0.00708   0.44453
           r6           0.00934   0.00514   0.02046   0.00017   0.41593
           a6          -0.00204   0.02219   0.04299   0.00057   0.00888
           d6           0.00478  -0.00039   0.00205   0.00469  -0.00946
           r7           0.00000   0.00389   0.00352  -0.00334   0.04098
           a7           0.00000   0.00206   0.01425   0.00821  -0.03369
           d7           0.00166  -0.00548   0.00715   0.00544  -0.05360
           r8          -0.00934   0.00540  -0.00002   0.00908   0.05377
           a8           0.00204   0.00071   0.00244  -0.00015  -0.03323
           d8           0.00478   0.00733  -0.00041   0.00164   0.06343
                          a6        d6        r7        a7        d7
           a6           0.43410
           d6           0.00990   0.42961
           r7          -0.03583   0.04902   0.23145
           a7           0.13252  -0.08684  -0.00142   0.40514
           d7           0.09181  -0.17784   0.00000  -0.00000   0.36980
           r8          -0.03323  -0.06343   0.04098  -0.03369   0.05360
           a8           0.14145   0.10314  -0.03583   0.13252  -0.09181
           d8          -0.10314  -0.24157  -0.04902   0.08684  -0.17784
                          r8        a8        d8
           r8           0.41593
           a8           0.00888   0.43410
           d8           0.00946  -0.00990   0.42961
 ITU=  0  1  1  0
     Eigenvalues ---    0.01058   0.12996   0.15413   0.17269   0.18465
     Eigenvalues ---    0.24922   0.27021   0.35731   0.38082   0.39557
     Eigenvalues ---    0.41387   0.45896   0.52896   0.63940   0.69065
     Eigenvalues ---    0.76086   0.76862   0.83091
 RFO step:  Lambda= 0.00000000D+00 EMin= 1.05842666D-02
 Quintic linear search produced a step of -0.00195.
 Variable       Old X    -DE/DX   Delta X   Delta X   Delta X     New X
                                 (Linear)    (Quad)   (Total)
    r2        2.93171  -0.00000   0.00000  -0.00000  -0.00000   2.93171
    r3        2.51033  -0.00000   0.00000  -0.00000  -0.00000   2.51033
    a3        1.92603   0.00000  -0.00000   0.00000   0.00000   1.92603
    r4        2.51540  -0.00000   0.00000  -0.00000  -0.00000   2.51540
    a4        1.90262  -0.00000  -0.00000   0.00000  -0.00000   1.90262
    d4        4.19667  -0.00000   0.00000  -0.00000  -0.00000   4.19667
    r5        2.51033  -0.00000   0.00000  -0.00000  -0.00000   2.51033
    a5        1.92603  -0.00000   0.00000  -0.00000  -0.00000   1.92603
    d5        2.11016  -0.00000   0.00000   0.00000   0.00000   2.11016
    r6        2.52139  -0.00000   0.00000  -0.00000   0.00000   2.52139
    a6        1.89465  -0.00000  -0.00000  -0.00000  -0.00000   1.89465
    d6        1.05767  -0.00000  -0.00000  -0.00001  -0.00001   1.05765
    r7        3.33746   0.00000  -0.00000   0.00000   0.00000   3.33746
    a7        1.94762   0.00000   0.00000   0.00000   0.00000   1.94762
    d7        5.22812   0.00000  -0.00000  -0.00001  -0.00001   5.22810
    r8        2.52139  -0.00000   0.00000  -0.00000  -0.00000   2.52139
    a8        1.89465   0.00000  -0.00000   0.00000   0.00000   1.89465
    d8        3.11539  -0.00000  -0.00000  -0.00001  -0.00001   3.11537
         Item               Value     Threshold  Converged?
 Maximum Force            0.000000     0.000002     YES
 RMS     Force            0.000000     0.000001     YES
 Maximum Displacement     0.000015     0.000006     NO 
 RMS     Displacement     0.000006     0.000004     NO 
 Predicted change in Energy=-4.363161D-12
 GradGradGradGradGradGradGradGradGradGradGradGradGradGradGradGradGradGrad

 ---------------------------------------------------------------------------------------------------
                            Z-MATRIX (ANGSTROMS AND DEGREES)
   CD    Cent   Atom    N1       Length/X        N2       Alpha/Y        N3        Beta/Z          J
 ---------------------------------------------------------------------------------------------------
      1      1  C 
      2      2  C        1   1.551397(     1)
[...]
 80438,-0.00002376,-0.00001366,-0.00002351,-0.00010380,-0.00004949,-0.0
 0004147,-0.00011633,0.00018072,-0.00020380,-0.01534932,-0.03533180,0.0
 0045118,0.00229552,0.00014326,-0.00080201,0.00622874,-0.00182586,-0.00
 011224,-0.00010910,0.00008397,-0.00004402,-0.00007501,-0.00003903,-0.0
 0003276,-0.00004724,0.00036635,-0.00081746,-0.00740314,0.00161363,-0.0
 0045878,0.00134750,-0.00049282,-0.00459117,0.03683776,-0.01669088,0.00
 017271,-0.00015970,-0.00004715,-0.00015145,0.00022937,-0.00068127,0.00
 004348,-0.00027609,-0.00001061,0.00024268,0.00131009,0.00030839,0.0046
 2872,0.00134286,-0.00209242,0.00086448,0.03690478,-0.04849503,0.029455
 94,-0.00035547,0.00030825,0.00004183,0.00023570,-0.00042572,0.00121871
 ,-0.00008318,0.00043742,0.00007194,-0.00013494,-0.00077992,-0.00057183
 ,-0.03926814,0.05157143,-0.00055289,0.00096469,-0.00125176,-0.01609183
 ,0.02835081,-0.00146882,0.00008177,-0.00021243,-0.00005203,-0.00010387
 ,0.00018668,-0.00065653,0.00013672,-0.00017638,-0.00005486,-0.00005084
 ,0.00091695,-0.00006091,0.01730451,-0.03052043,0.00363729,-0.00007398,
 0.00026558,0.00189671,0.03918111,-0.00983345,-0.00880744,0.00020099,-0
 .00018818,0.00002198,-0.00020613,-0.00001803,0.00000997,-0.00005115,-0
 .00003833,-0.00003472,0.00045628,0.00150859,0.00104891,0.00011317,0.00
 135834,-0.00072356,-0.03962029,0.00086103,-0.00022968,-0.00072701,-0.0
 0834680,-0.00025821,0.00416361,0.00010768,0.00005981,-0.00033845,-0.00
 012389,0.00011161,-0.00007958,-0.00002748,-0.00004544,-0.00008022,0.00
 060482,-0.00075551,-0.00031794,-0.00002084,-0.00052459,0.00049007,0.00
 694548,0.00164204,-0.00229605,0.00079992,0.00016148,-0.00465503,0.0038
 6783,-0.00164925,0.00004423,-0.00000309,0.00039907,0.00009234,-0.00000
 035,-0.00003558,0.00015128,0.00004120,0.00009420,-0.00023477,-0.001034
 35,-0.00028140,0.00030984,-0.00056069,-0.00009287,0.00658815,-0.003110
 48,0.00140440,0.01373007,-0.01356684,0.02976892,-0.00215961,0.00366869
 ,-0.04289610,0.00458518,0.00083296,0.00356986,0.14428358,0.00080247,0.
 00365725,-0.00616388,0.10447419,0.01806398,0.00038514,-0.00048974,0.02
 229781,-0.00760303,0.01289945,-0.03053486,-0.01027929,0.00254512,-0.00
 523480,-0.00122984,-0.00101791,0.00278039,0.01018164,0.00147132,0.0017
 2243,-0.00053278,-0.00047077,0.00021956,0.00033250,-0.00132477,-0.0024
 3062,-0.00127412,-0.00137104,0.00672139,0.00017781,0.00087821,-0.00165
 959,0.00138024,-0.00009398,-0.00446478,-0.00483087,0.01640824,0.000020
 24,-0.00080369,0.00062677,0.00003460,0.00048433,0.00015989,-0.00030377
 ,0.00474851,0.01641679,-0.02449119,-0.00006711,0.00063297,-0.00157318,
 -0.00004237,-0.00067329,0.00028184,0.00020355,-0.01668190,0.02474606,-
 0.00114574,0.00199573,0.01018058,-0.00002326,0.00007275,-0.00021607,0.
 00009594,-0.00022323,0.00009681,0.00087448,-0.00153837,-0.00962639,0.0
 0030665,-0.00481644,0.00317145,-0.00077387,-0.00072439,-0.00169509,0.0
 0052946,0.00018797,-0.00039384,0.00010088,0.00039111,0.00013502,-0.000
 26644,-0.00373465,-0.00877151,0.00427039,-0.00128875,-0.00018419,-0.00
 221282,0.00054112,0.00009711,-0.00017218,-0.00044064,0.00060907,-0.000
 20277,0.00488608,0.00796052,0.00187812,0.00044983,0.00669949,-0.000870
 37,0.00025826,-0.00162933,0.00035246,0.00024501,0.00032315,-0.00002722
 ,0.00037545,0.00010423,-0.00064642,-0.00128168,-0.00445547,0.00009845,
 -0.00201080,-0.00155229,-0.04421817,-0.07015520,-0.02509498,0.00008706
 ,0.00012419,-0.00009440,-0.00010884,0.00041943,-0.00007988,-0.00001652
 ,0.00001579,-0.00033908,0.04082637,-0.00161198,-0.00259232,-0.00170841
 ,-0.07549612,-0.04383939,-0.02811312,0.00015214,0.00015323,0.00008424,
 -0.00023172,0.00058242,-0.00031944,-0.00008250,-0.00008126,-0.00060309
 ,0.07256677,0.04799957,-0.00156185,-0.00251616,-0.00308177,-0.02639523
 ,-0.02799758,0.01005782,0.00015441,0.00008081,-0.00003215,0.00000413,0
 .00028893,-0.00004246,-0.00007967,-0.00006468,-0.00041085,0.02779071,0
 .02884529,-0.00816799,-0.00013335,0.00007499,-0.00005435,0.00711552,0.
 00322974,-0.00595329,0.00029174,-0.00011053,-0.00017449,-0.00005458,0.
 00008505,-0.00017357,-0.00012842,-0.00003596,-0.00032417,0.00041039,0.
 00212359,-0.00001712,-0.00554076,0.00007042,-0.00024375,0.00009078,0.0
 0329606,0.00344076,0.01051517,-0.00028949,-0.00003688,0.00048364,0.000
 09139,-0.00015614,0.00032298,0.00014016,0.00038333,0.00040798,-0.00069
 032,-0.00381354,0.00021452,-0.00613223,0.00173953,0.00101083,-0.001793
 48,0.00314241,-0.00671018,0.01180237,-0.00854860,0.00038791,0.00016340
 ,-0.00060648,-0.00035784,0.00063473,-0.00045761,-0.00034296,-0.0002461
 0,-0.00060913,0.00037866,0.00128558,0.00058594,0.00689409,-0.01215741,
 0.00593854,-0.00347684,0.00053278,0.00223950,-0.10895872,-0.03723568,0
 .03714626,-0.00006511,-0.00003729,0.00068257,0.00046425,-0.00059016,0.
 00031701,0.00024825,0.00005701,-0.00002333,0.00292125,0.00257982,0.000
 10462,-0.00196124,0.00351396,-0.00126054,0.11082815,0.00015248,0.00095
 017,0.00044232,-0.03198053,0.02021522,0.00711094,0.00006708,-0.0000066
 7,-0.00001244,0.00006797,0.00000111,-0.00010765,0.00001801,-0.00001306
 ,0.00014825,-0.00026986,0.00159130,0.00114888,0.00076528,-0.00131393,0
 .00031095,0.03117954,-0.02142412,0.00286722,0.00005617,-0.00306381,0.0
 3785440,0.00825042,0.01023282,0.00008345,0.00002828,-0.00037835,-0.000
 24462,0.00014518,-0.00003909,-0.00014849,-0.00009014,-0.00002212,-0.00
 100873,0.00052896,0.00109147,-0.00019713,0.00012238,0.00055429,-0.0392
 0609,-0.00904124,-0.00837520,0.00354904,0.00076661,0.00243261,-0.00118
 023,0.00194361,-0.02729267,0.00221215,0.00113081,-0.00241318,0.1762989
 9,0.00110007,0.00092824,0.00439032,0.04999932,0.11528187,-0.00268882,0
 .00493339,0.02208401,-0.06687981,0.11746024,-0.01032711,-0.00679311,0.
 00203353,0.00320878,-0.00092044,-0.00015525,-0.00006656,0.00652314,0.0
 0224177,0.00195051,-0.00066275,0.00003992,-0.00015247,-0.00058540,-0.0
 0213805,-0.00205566,0.00658833,-0.00024683,0.00026268,-0.00092270,-0.0
 0074519,0.00097978,-0.00469708,0.00098949,-0.00004331,0.00035541,-0.00
 083005,0.00025613,-0.00048545,0.00003370,0.00089898,0.00025703,-0.0002
 3977,-0.00031273,-0.00051172,-0.00082112,0.00132986,-0.00048268,0.0000
 3990,-0.00054532,-0.00156686,-0.00004736,0.00017642,0.00001678,0.00107
 875,-0.00177582,-0.00010734,0.00016432,0.00059092,0.00002894,-0.000019
 12,0.00077940,0.00019756,-0.00015058,-0.00000227,-0.00032626,0.0005790
 5,-0.00073931,0.00150734,-0.00268006,-0.00105447,-0.00036073,-0.000275
 60,0.00055511,-0.00005892,0.00005959,-0.00019432,0.00006296,-0.0001222
 5,0.00002059,-0.00167167,-0.00288045,-0.00626022,-0.00304222,-0.000488
 24,-0.00065976,-0.00024143,-0.00014382,-0.00000485,-0.00000249,0.00007
 192,0.00031561,-0.00025267,0.00272651,0.00608314,-0.00312523,-0.005719
 75,0.00024087,0.00108779,0.00036864,0.00101048,0.00010413,0.00016071,0
 .00008224,0.00013770,0.00028704,0.00000499,0.00154596,0.00449038,-0.00
 003458,-0.00028853,-0.00091880,-0.00055537,0.01472527,-0.08612845,-0.0
 4442746,0.00052997,0.00001518,-0.00061476,-0.00009685,0.00032696,0.000
 02290,-0.00005016,-0.00007400,-0.00051112,-0.01159923,-0.00032559,-0.0
 0010997,-0.00056616,-0.08081661,-0.17263553,-0.10231539,0.00099486,0.0
 0011069,-0.00072550,-0.00019933,0.00061859,-0.00048426,0.00009134,0.00
 012956,-0.00033923,0.08613282,0.17335860,0.00055450,-0.00035342,0.0016
 7302,-0.04408553,-0.10184523,-0.00696041,0.00068151,0.00024716,-0.0005
 0225,-0.00002853,0.00058314,-0.00015855,-0.00013909,-0.00024456,-0.000
 48751,0.04439475,0.10222884,0.00457644,0.00016066,0.00057038,0.0009913
 1,0.00615608,-0.01036482,0.00186478,0.00034390,0.00001472,-0.00039113,
 -0.00004874,0.00009774,-0.00024202,-0.00008583,-0.00013212,-0.00017796
 ,0.00105207,0.00142078,0.00064570,-0.00767976,0.00056577,-0.00054274,-
 0.00175349,-0.01029786,0.01875707,-0.00327574,-0.00039141,-0.00001176,
 0.00044301,0.00010408,-0.00016545,0.00044388,0.00027115,0.00041807,0.0
 0057302,-0.00023424,-0.00109374,-0.00026317,0.00802160,-0.01734592,0.0
 0003494,-0.00007218,0.00074993,0.00287902,-0.00511319,-0.00078242,0.00
 030349,0.00001455,-0.00032204,-0.00014496,0.00025917,-0.00032006,-0.00
 017171,-0.00025013,-0.00032447,0.00031816,0.00061786,0.00103682,-0.002
 56269,0.00452403,-0.00104346,-0.00070296,-0.00007243,0.00074704,-0.197
 62587,0.04579103,0.11074380,0.00011842,0.00000662,0.00054439,0.0004673
 5,-0.00055261,0.00040563,0.00065702,0.00092019,0.00093873,-0.00427254,
 -0.00729829,-0.00202330,0.00010084,0.00196095,-0.00065622,0.20125777,-
 0.00064707,0.00027171,0.00017337,0.04039276,0.03902590,-0.01440881,-0.
 00015252,-0.00001288,0.00027073,-0.00001928,0.00004608,-0.00028064,-0.
 00007070,-0.00002153,0.00017920,0.00088051,-0.00037817,-0.00035277,0.0
 0037175,-0.00001632,0.00001986,-0.04075547,-0.03891476,-0.00007613,-0.
 00064913,0.00169125,0.11030549,-0.01449647,-0.00678372,0.00026818,-0.0
 0001318,-0.00045483,-0.00048031,0.00032435,-0.00015513,-0.00056207,-0.
 00045689,-0.00049201,0.00137289,0.00158384,0.00082246,-0.00012798,-0.0
 0069158,0.00100494,-0.11070006,0.01439907,0.00436707,0.15406790,-0.033
 59540,0.19407259,0.06222810,-0.10990005,0.00881131,0.00099041,0.000798
 19,0.00144547,0.00091993,0.00076745,0.00010467,-0.00241589,0.00099588,
 -0.00143629,0.00104552,-0.00165396,0.01737453,-0.00087301,0.00102513,-
 0.02135301,-0.08184048,-0.04215166,0.04469099,-0.00109558,-0.00023396,
 -0.00030114,0.08200406,-0.03759050,0.01219375,0.01137793,0.00019962,0.
 00053005,-0.00021851,0.03639843,-0.01364506,0.04306693,0.01193394,-0.0
 0548993,-0.00012595,0.00067143,0.00019137,-0.04290596,-0.01225156,0.00
 389899,-0.02425145,0.13327995,-0.07473557,0.00040466,0.00016226,-0.000
 48089,-0.00258328,-0.00060247,0.00076918,0.02494633,0.13328880,-0.1838
 0599,0.13179856,0.00016845,0.00019101,0.00086717,0.00542074,-0.0005150
 5,-0.00115965,-0.13554718,0.18722343,-0.07411452,0.13070897,-0.0153379
 3,-0.00029570,0.00055355,0.00212551,-0.00187606,0.00001920,0.00093364,
 0.07458703,-0.13156396,0.01186500,-0.04777179,-0.05793755,-0.03269143,
 0.00013128,-0.00051525,0.00036073,0.00292966,0.00146012,-0.00062258,0.
 00105452,-0.00277837,0.00093983,0.04367051,-0.06249083,-0.02178750,-0.
 03245465,-0.00096625,-0.00064435,0.00014838,0.00100890,0.00145566,0.00
 075426,0.00324651,-0.00420824,0.00161382,0.05930402,0.02463513,-0.0323
 1258,-0.03076701,-0.00551310,-0.00053698,0.00041244,0.00022205,-0.0003
 2517,0.00091695,0.00131856,0.00059144,-0.00124538,0.00094097,0.0325317
 4,0.03047761,0.00390917,-0.00040318,-0.00068912,-0.00069047,-0.0002754
 3,-0.00087349,-0.00015430,0.00016109,0.00005152,-0.00013283,-0.0000962
 1,0.00035453,0.00013853,0.00002592,-0.00003856,-0.00012943,0.00048431,
 -0.00007057,-0.00037160,0.00065478,-0.00045977,0.00028423,0.00027832,0
 .00008915,0.00001278,-0.00031373,-0.00048741,0.00080365,-0.00082212,0.
 00010088,0.00003627,-0.00013003,0.00090483,-0.00087237,-0.00031533,-0.
 00005250,-0.00032191,-0.00072012,-0.00124162,0.00052973,-0.00010461,0.
 00014736,-0.00021304,-0.00000473,0.00077523,-0.00012018,-0.00011877,-0
 .00034021,-0.00027494,0.00113893,0.00040236,0.00009609,-0.00007908,0.0
 0017615,-0.00001585,0.00021581,0.00004065,0.00042637,0.00033490,0.0000
 0434,-0.00021770,0.00003644,-0.00005374,-0.00001526,-0.00014466,-0.000
 18817,-0.00015692,-0.00003678,-0.00003671,-0.00001891,-0.00045368,0.00
 017150,-0.00031058,0.00002299,0.00010752,0.00036031,-0.00073828,-0.000
 47727,-0.00003083,0.00031465,-0.00004738,0.00010105,0.00004386,0.00029
 060,0.00044886,0.00035832,0.00004239,0.00003791,0.00011241,0.00007579,
 -0.00060837,0.00028953,-0.00052123,0.00078066,-0.00060574,0.00103400,0
 .00020377,0.00048214,0.00008837,-0.00039735,-0.00006915,0.00012545,-0.
 00029018,-0.00032686,-0.00036553,-0.00039982,0.00004122,-0.00007647,0.
 00012851,0.00010726,-0.00018548,-0.00012298,-0.00071232,0.00011944,-0.
 00023125,-0.00129109,-0.00034353,-0.00002328,0.00008963,0.00007893,0.0
 0016891,0.00048900,-0.00085321,0.00063615,0.00010454,0.00012437,0.0003
 3789,0.00014029,-0.00004040,0.00014354,0.00012598,-0.00016334,0.000081
 59,0.00105397,-0.00048045,-0.00009533,0.00091633,-0.00084364,0.0006103
 7,0.00029176,-0.00005432,-0.00000129,0.00005066,-0.00000427,0.00021014
 ,-0.00055333,0.00007555,0.00006417,-0.00002290,0.00024789,0.00006916,0
 .00019695,-0.00001850,0.00000079,-0.00009908,0.00107773,-0.00085798,0.
 00011234,0.00025184,-0.00030361,0.00171204,-0.00003905,0.00070606,0.00
 033981,-0.00007973,-0.00024223,-0.00065731,0.00040257,-0.00011681,-0.0
 0007266,0.00016632,-0.00020287,-0.00021166,0.00000689,0.00017576,-0.00
 010901,0.00007156,0.00009661,-0.00111356,-0.00078038,-0.00011288,0.231
 29879,0.07750147,0.13831831,-0.08055590,0.14196271,0.02387472,0.000435
 37,0.00017918,-0.00226514,0.00586886,0.00014846,0.00029052,0.00412921,
 0.00137431,0.00305758,-0.00079183,0.00158685,0.01354843,-0.00282197,0.
 00446213,-0.01564430,-0.24209428,0.04713180,0.13019105,-0.00043390,0.0
 0017914,0.00045997,0.24525501,0.04257859,0.04107476,-0.01577733,0.0000
 4028,0.00074611,0.00005131,-0.04191764,-0.04222866,0.12769975,-0.01614
 505,-0.01739649,0.00103771,-0.00045018,0.00045661,-0.12927553,0.016372
 86,0.01568174,0.00459475,-0.01904330,0.00440001,0.00023875,0.00044094,
 0.00051741,0.00059299,-0.00121641,0.00002940,-0.00611858,-0.01903453,0
 .02737307,-0.00779286,0.00044716,-0.00030861,-0.00089380,0.00092226,0.
 00093186,-0.00111208,0.01908358,-0.02893726,0.00515601,-0.00912059,-0.
 00128055,0.00044933,-0.00076068,0.00086825,-0.00053891,-0.00056862,0.0
 0112473,-0.00581697,0.01026506,-0.00114275,0.00589490,-0.10581045,-0.0
 5330124,0.00057667,-0.00054514,-0.00026155,-0.00425842,0.00078547,0.00
 154589,0.00070461,-0.00128180,0.00075752,-0.00333696,-0.10124922,-0.20
 682387,-0.11976130,-0.00042372,-0.00021206,-0.00036605,-0.00698765,-0.
 00054227,0.00166093,0.00085845,0.00076555,0.00016452,0.10683812,0.2063
 0628,-0.05168428,-0.11780388,-0.01741881,-0.00017220,-0.00116202,0.000
 48738,-0.00221688,-0.00047810,0.00069489,0.00093058,-0.00058626,0.0011
 3202,0.05232740,0.11928488,0.01569088,0.00045409,0.00014253,0.00055992
 ,0.00101524,-0.00298627,-0.00120938,0.00051605,-0.00013451,-0.00075371
 ,-0.00008951,0.00008208,-0.00023585,0.00000204,0.00011507,0.00001751,-
 0.00192731,-0.00068359,-0.00032908,-0.00101090,-0.00325813,-0.00622868
 ,-0.00370741,0.00090285,0.00000875,-0.00042750,-0.00010082,0.00016127,
 -0.00021944,0.00000602,0.00014415,-0.00001912,0.00292584,0.00631326,-0
 .00004033,-0.00040367,-0.00081953,-0.00231246,-0.00542989,-0.00007623,
 0.00091086,0.00042606,-0.00027413,0.00000371,0.00010115,-0.00031000,-0
 .00032534,-0.00025901,-0.00026060,0.00163374,0.00541618,0.00150420,-0.
 00022505,0.00009089,0.00041535,0.00021068,-0.00020368,0.00016839,0.000
 23387,-0.00004628,-0.00028175,0.00000890,-0.00000799,-0.00008244,-0.00
 005464,-0.00008176,0.00004351,0.00001128,0.00002506,0.00002983,-0.0002
 1757,0.00008625,-0.00035446,-0.00073752,-0.00013670,0.00064783,-0.0002
 8319,-0.00025652,0.00002576,0.00011947,-0.00000164,0.00001876,0.000162
 38,0.00012562,0.00031439,0.00031303,-0.00012957,-0.00004061,0.00006761
 ,0.00032869,-0.00067573,-0.00005593,0.00008815,0.00029363,-0.00003952,
 0.00003514,0.00025950,0.00009324,-0.00016537,-0.00005948,0.00001917,-0
 .00003036,-0.00008510,0.00009069,-0.00016212,-0.00006185,0.00007802,-0
 .00001685,0.00013842,-0.00019731,0.00035148,-0.00059223,-0.00035857,-0
 .00019213,0.00055595,-0.00791167,0.00159223,0.00393897,0.00018866,-0.0
 0008950,-0.00000176,0.00006811,-0.00021077,0.00031131,0.00047180,0.000
 93071,0.00075437,0.00001812,0.00018277,0.00009999,0.00003180,-0.000016
 20,0.00001166,0.00749176,0.00065256,0.00045076,-0.00101200,0.00177763,
 0.00200730,-0.00084984,0.00002575,-0.00001632,-0.00001844,-0.00002079,
 -0.00000462,0.00007738,-0.00011785,0.00004783,0.00045146,-0.00001517,-
 0.00002906,0.00008157,-0.00010500,0.00006342,-0.00010007,-0.00219713,-
 0.00251930,0.00027251,-0.00016450,-0.00080140,0.00612425,-0.00082372,0
 .00010035,0.00037621,0.00013920,-0.00022789,-0.00008330,0.00004916,-0.
 00030658,-0.00083337,-0.00056184,-0.00026390,-0.00009024,-0.00001497,0
 .00009786,-0.00009557,0.00000672,0.00010652,-0.00567049,0.00136995,0.0
 0129507,0.00053529,-0.00664047,0.00828590,-0.00086904,0.00139700,0.161
 82968,0.04130677,0.00013585,-0.00080799,-0.00317247,0.00010515,0.04121
 386,0.00155867,0.02130980,-0.02984957,-0.00137229,0.00261063,-0.249596
 41,0.00156707,-0.00328059,0.21619667,-0.03370294,0.00291340,-0.0171423
 4,0.00141775,-0.00125270,-0.00001407,0.02818342,0.00266342,0.00542174,
 -0.00181661,-0.00012574,-0.00066410,0.00030898,-0.00256913,-0.00575966
 ,-0.01005263,-0.00161722,0.02853940,-0.00262720,0.00075452,-0.00351047
 ,0.01314242,0.00124057,-0.02153117,-0.00498837,0.01950953,0.00980192,-
 0.00068972,0.00012679,-0.00037778,0.00227629,-0.00056455,-0.00048672,0
 .00319800,0.01951856,-0.02836040,-0.01732274,0.00013308,-0.00086107,0.
 00068545,-0.00259607,0.00045729,0.00072785,-0.01749611,0.02416704,0.00
 627283,-0.01109160,0.03195665,0.00024979,-0.00040874,-0.00345056,0.000
 87296,-0.00000960,-0.00180614,-0.00767272,0.01353944,-0.02573944,-0.00
 246138,-0.01599049,0.01038761,-0.00067730,0.00114777,-0.00023903,0.002
 15806,0.00065140,-0.00046236,-0.00046393,0.00107691,-0.00044722,0.0009
 3455,-0.01573263,-0.02573161,0.01382657,0.00000333,0.00148330,0.000172
 97,0.00239558,0.00033775,-0.00068168,-0.00095278,0.00314332,-0.0007598
 0,0.01370098,0.02143417,0.00659732,0.00785448,0.02851771,0.00067646,0.
 00260131,-0.00347952,0.00082444,0.00004179,-0.00180220,-0.00038303,0.0
 0080140,-0.00179895,-0.00783159,-0.01068701,-0.02152262,-0.00062333,0.
 00058103,0.00112262,-0.00580627,-0.01825541,0.00175871,0.00093442,0.00
 001911,-0.00049641,-0.00023944,0.00064306,-0.00006582,-0.00031776,-0.0
 0068487,-0.00034874,0.00449462,0.00040846,-0.00010622,0.00274705,-0.01
 886733,-0.02039189,0.00455323,0.00157267,0.00014402,-0.00059970,-0.000
 74764,0.00158467,-0.00087324,-0.00083874,-0.00138262,-0.00096014,0.017
 34418,0.01895934,0.00082598,0.00225650,-0.00153827,0.00104317,0.001274
 50,0.01959310,0.00079895,0.00020335,0.00001967,-0.00004581,0.00067986,
 0.00019444,-0.00045846,-0.00081292,0.00052564,-0.00189255,-0.00496495,
 -0.01669905,-0.00026193,-0.00043220,0.00046491,0.00136797,-0.00054397,
 0.00335060,0.00047750,-0.00010594,-0.00001087,-0.00013150,0.00024889,0
 .00000517,-0.00021682,-0.00023767,-0.00030481,-0.00001871,-0.00001215,
 -0.00030605,-0.00164888,-0.00043688,0.00023496,-0.00082502,-0.00047690
 ,0.00221280,-0.00589657,-0.00065528,-0.00000734,0.00036313,0.00025522,
 -0.00042915,0.00000786,0.00030887,0.00068700,0.00020582,-0.00037483,0.
 00068126,0.00093358,0.00169028,-0.00373666,0.00105291,-0.00186803,0.00
 181140,0.00125014,-0.00223986,0.00447728,0.00059781,0.00006259,-0.0004
 6746,-0.00028140,0.00049981,0.00044612,-0.00036412,-0.00047802,-0.0004
 7004,0.00027794,-0.00012226,-0.00065734,-0.00253283,0.00447161,-0.0044
 5131,0.00019589,-0.00007665,-0.00295769,-0.03374674,-0.00263743,-0.004
 67321,-0.00174453,0.00003142,0.00099378,0.00103866,-0.00152830,0.00078
 501,0.00104458,0.00150805,0.00076995,0.00157647,0.00114055,0.00003478,
 0.00043147,-0.00031058,-0.00000044,0.03120420,0.00011438,-0.00095822,0
 .00043510,-0.00211208,0.00685667,0.00084588,0.00019152,0.00007030,-0.0
 0018747,-0.00013046,0.00029829,-0.00040433,-0.00005670,0.00002869,0.00
 014234,0.00072773,0.00051145,0.00043009,-0.00060734,0.00035635,-0.0003
 2585,0.00187293,-0.00716350,-0.00245508,0.00045823,-0.00152015,-0.0013
 5145,-0.00025981,0.01976990,0.00091983,-0.00003107,0.00055836,-0.00055
 446,0.00038890,0.00019789,-0.00058481,-0.00058011,0.00002996,-0.000355
 75,0.00022003,-0.00143819,-0.00066611,0.00073958,-0.00068933,0.0050478
 3,-0.00093575,-0.01690843\\@
 The archive entry for this job was punched.


 BLACK HOLES SUCK.
 Job cpu time:       0 days 11 hours 31 minutes 43.7 seconds.
 Elapsed time:       0 days  4 hours  2 minutes 12.5 seconds.
 File lengths (MBytes):  RWF=     83 Int=      0 D2E=      0 Chk=     45 Scr=      1
 Normal termination of Gaussian 16 at Tue Jul 28 02:03:17 2020.
