                  Welcome to Q-Chem
     A Quantum Leap Into The Future Of Chemistry


 Q-Chem 5.2 (devel), Q-Chem, Inc., Pleasanton, CA (2019)

 Yihan Shao,  Zhengting Gan,  E. Epifanovsky,  A. T. B. Gilbert,  M. Wormit,  
 J. Kussmann,  A. W. Lange,  A. Behn,  Jia Deng,  Xintian Feng,  D. Ghosh,  
 M. Goldey,  P. R. Horn,  L. D. Jacobson,  I. Kaliman,  T. Kus,  A. Landau,  
 Jie Liu,  E. I. Proynov,  R. M. Richard,  R. P. Steele,  E. J. Sundstrom,  
 H. L. Woodcock III,  P. M. Zimmerman,  D. Zuev,  B. Albrecht,  E. Alguire,  
 S. A. Baeppler,  D. Barton,  Z. Benda,  Y. A. Bernard,  E. J. Berquist,  
 K. B. Bravaya,  H. Burton,  D. Casanova,  Chun-Min Chang,  Yunqing Chen,  
 A. Chien,  K. D. Closser,  M. P. Coons,  S. Coriani,  S. Dasgupta,  
 A. L. Dempwolff,  M. Diedenhofen,  Hainam Do,  R. G. Edgar,  Po-Tung Fang,  
 S. Faraji,  S. Fatehi,  Qingguo Feng,  K. D. Fenk,  J. Fosso-Tande,  
 J. Gayvert,  Qinghui Ge,  A. Ghysels,  G. Gidofalvi,  J. Gomes,  
 J. Gonthier,  A. Gunina,  D. Hait,  M. W. D. Hanson-Heine,  
 P. H. P. Harbach,  A. W. Hauser,  M. F. Herbst,  J. E. Herr,  
 E. G. Hohenstein,  Z. C. Holden,  Kerwin Hui,  B. C. Huynh,  T.-C. Jagau,  
 Hyunjun Ji,  B. Kaduk,  K. Khistyaev,  Jaehoon Kim,  P. Klunzinger,  K. Koh,  
 D. Kosenkov,  L. Koulias,  T. Kowalczyk,  C. M. Krauter,  A. Kunitsa,  
 Ka Un Lao,  A. Laurent,  K. V. Lawler,  Joonho Lee,  D. Lefrancois,  
 S. Lehtola,  D. S. Levine,  Yi-Pei Li,  You-Sheng Lin,  Fenglai Liu,  
 E. Livshits,  A. Luenser,  P. Manohar,  E. Mansoor,  S. F. Manzer,  
 Shan-Ping Mao,  Yuezhi Mao,  N. Mardirossian,  A. V. Marenich,  
 T. Markovich,  L. A. Martinez-Martinez,  S. A. Maurer,  N. J. Mayhall,  
 S. C. McKenzie,  J.-M. Mewes,  P. Morgante,  A. F. Morrison,  
 J. W. Mullinax,  K. Nanda,  T. S. Nguyen-Beck,  R. Olivares-Amaya,  
 J. A. Parkhill,  Zheng Pei,  T. M. Perrine,  F. Plasser,  P. Pokhilko,  
 S. Prager,  A. Prociuk,  E. Ramos,  D. R. Rehn,  F. Rob,  M. Scheurer,  
 M. Schneider,  N. Sergueev,  S. M. Sharada,  S. Sharma,  D. W. Small,  
 T. Stauch,  T. Stein,  Yu-Chuan Su,  A. J. W. Thom,  A. Tkatchenko,  
 T. Tsuchimochi,  N. M. Tubman,  L. Vogt,  M. L. Vidal,  O. Vydrov,  
 M. A. Watson,  J. Wenzel,  M. de Wergifosse,  T. A. Wesolowski,  A. White,  
 J. Witte,  A. Yamada,  Jun Yang,  K. Yao,  S. Yeganeh,  S. R. Yost,  
 Zhi-Qiang You,  A. Zech,  Igor Ying Zhang,  Xing Zhang,  Yan Zhao,  
 Ying Zhu,  B. R. Brooks,  G. K. L. Chan,  C. J. Cramer,  M. S. Gordon,  
 W. J. Hehre,  A. Klamt,  M. W. Schmidt,  C. D. Sherrill,  D. G. Truhlar,  
 A. Aspuru-Guzik,  R. Baer,  A. T. Bell,  N. A. Besley,  Jeng-Da Chai,  
 A. E. DePrince, III,  R. A. DiStasio Jr.,  A. Dreuw,  B. D. Dunietz,  
 T. R. Furlani,  Chao-Ping Hsu,  Yousung Jung,  Jing Kong,  D. S. Lambrecht,  
 WanZhen Liang,  C. Ochsenfeld,  V. A. Rassolov,  L. V. Slipchenko,  
 J. E. Subotnik,  T. Van Voorhis,  J. M. Herbert,  A. I. Krylov,  
 P. M. W. Gill,  M. Head-Gordon

 Contributors to earlier versions of Q-Chem not listed above: 
 R. D. Adamson,  B. Austin,  J. Baker,  G. J. O. Beran,  K. Brandhorst,  
 S. T. Brown,  E. F. C. Byrd,  A. K. Chakraborty,  C.-L. Cheng,  
 Siu Hung Chien,  D. M. Chipman,  D. L. Crittenden,  H. Dachsel,  
 R. J. Doerksen,  A. D. Dutoi,  L. Fusti-Molnar,  W. A. Goddard III,  
 A. Golubeva-Zadorozhnaya,  S. R. Gwaltney,  G. Hawkins,  A. Heyden,  
 S. Hirata,  G. Kedziora,  F. J. Keil,  C. Kelley,  Jihan Kim,  R. A. King,  
 R. Z. Khaliullin,  P. P. Korambath,  W. Kurlancheek,  A. M. Lee,  M. S. Lee,  
 S. V. Levchenko,  Ching Yeh Lin,  D. Liotard,  R. C. Lochan,  I. Lotan,  
 P. E. Maslen,  N. Nair,  D. P. O'Neill,  D. Neuhauser,  E. Neuscamman,  
 C. M. Oana,  R. Olson,  B. Peters,  R. Peverati,  P. A. Pieniazek,  
 Y. M. Rhee,  J. Ritchie,  M. A. Rohrdanz,  E. Rosta,  N. J. Russ,  
 H. F. Schaefer III,  N. E. Schultz,  N. Shenvi,  A. C. Simmonett,  A. Sodt,  
 D. Stuck,  K. S. Thanthiriwatte,  V. Vanovschi,  Tao Wang,  A. Warshel,  
 C. F. Williams,  Q. Wu,  X. Xu,  W. Zhang

 Please cite Q-Chem as follows:
 Y. Shao et al., Mol. Phys. 113, 184-215 (2015)
 DOI: 10.1080/00268976.2014.952696

 Q-Chem 5.2.0 for Intel X86 EM64T Linux

 Parts of Q-Chem use Armadillo 8.300.2 (Tropical Shenanigans).
 http://arma.sourceforge.net/

 Q-Chem begins on Tue Jun 23 12:46:44 2020  

Host: gadi-cpu-clx-0263.gadi.nci.org.au
0

     Scratch files written to /jobfs/7626483.gadi-pbs/qchem38409//
NAlpha2: 10
NElect   10
Mult     1

Checking the input file for inconsistencies... 	...done.

--------------------------------------------------------------
User input:
--------------------------------------------------------------
$comment
	QCHEM - Ammonia
	Geometry optimization
	Anharmonic frequency analysis
$end

$molecule
0 1
N         -0.31060        1.49398        0.00912
H          0.70673        1.43731       -0.00479
H         -0.62220        0.78704        0.67357
H         -0.62220        1.17497       -0.90712

$end

$rem
	JOBTYPE	OPT
	METHOD	M06
	BASIS	def2-TZVP
	SCF_CONVERGENCE	7
$end

--------------------------------------------------------------
 ----------------------------------------------------------------
             Standard Nuclear Orientation (Angstroms)
    I     Atom           X                Y                Z
 ----------------------------------------------------------------
    1      N      -0.0000011806    -0.0000005799     0.1182370928
    2      H       0.9347814452    -0.0959954925    -0.2758843672
    3      H      -0.5505224454    -0.7615408777    -0.2758888234
    4      H      -0.3842507359     0.8575404296    -0.2758864589
 ----------------------------------------------------------------
 Molecular Point Group                 C1    NOp =  1
 Largest Abelian Subgroup              C1    NOp =  1
 Nuclear Repulsion Energy =          11.88091287 hartrees
 There are        5 alpha and        5 beta electrons
 Requested basis set is def2-TZVP
 There are 23 shells and 49 basis functions

 Total QAlloc Memory Limit   2000 MB
 Mega-Array Size       188 MB
 MEM_STATIC part       192 MB
 A cutoff of  1.0D-10 yielded    276 shell pairs
 There are      1284 function pairs (      1578 Cartesian)
 Smallest overlap matrix eigenvalue = 5.05E-03

 Scale SEOQF with 1.000000e+00/1.000000e+00/1.000000e+00

 Standard Electronic Orientation quadrupole field applied
 Nucleus-field energy     =     0.0000000011 hartrees
 Guess from superposition of atomic densities
 Warning:  Energy on first SCF cycle will be non-variational
 SAD guess density has 10.000000 electrons

 -----------------------------------------------------------------------
  General SCF calculation program by
  Eric Jon Sundstrom, Paul Horn, Yuezhi Mao, Dmitri Zuev, Alec White,
  David Stuck, Shaama M.S., Shane Yost, Joonho Lee, David Small,
  Daniel Levine, Susi Lehtola, Hugh Burton, Evgeny Epifanovsky
 -----------------------------------------------------------------------
 Exchange:     0.2700 Hartree-Fock + 1.0000 M06
 Correlation:  1.0000 M06
 Using SG-3 standard quadrature grid
 using 4 threads for integral computing
 -------------------------------------------------------
 OpenMP Integral computing Module                
 Release: version 2.0, May 2017, Q-Chem Inc. Pleasanton 
 -------------------------------------------------------
 A restricted SCF calculation will be
 performed using DIIS
 SCF converges when DIIS error is below 1.0e-07
 ---------------------------------------
  Cycle       Energy         DIIS error
 ---------------------------------------
    1     -56.5109705453      7.33e-02  
    2     -56.4712880531      1.63e-02  
    3     -56.4372166923      2.02e-02  
    4     -56.5401675214      4.86e-04  
    5     -56.5402226960      1.60e-04  
    6     -56.5402274379      4.07e-05  
    7     -56.5402278342      1.74e-06  
    8     -56.5402278350      1.92e-07  
    9     -56.5402278353      4.02e-08  Convergence criterion met
 ---------------------------------------
 SCF time:   CPU 5.29s  wall 1.00s 
 SCF   energy in the final basis set =      -56.5402278353
 Total energy in the final basis set =      -56.5402278353
 
 --------------------------------------------------------------
 
                    Orbital Energies (a.u.)
 --------------------------------------------------------------
 
 Alpha MOs
 -- Occupied --
-14.3613  -0.8651  -0.4672  -0.4667  -0.2821
 -- Virtual --
  0.0241   0.0940   0.0941   0.3023   0.3025   0.3569   0.4111   0.4938
  0.4946   0.5012   0.9139   0.9139   1.1411   1.2316   1.2317   1.6008
  1.7128   1.7145   1.7540   1.9827   2.0066   2.0119   2.2900   2.2954
  2.3086   2.4344   2.4597   2.4651   2.9829   3.2188   3.2218   4.0297
  4.2768   4.2771   4.3839   4.6063   4.6066   4.6341   4.8621   4.8625
  5.2617   5.2904   5.5949  31.4759
 --------------------------------------------------------------
 
          Ground-State Mulliken Net Atomic Charges

     Atom                 Charge (a.u.)
  ----------------------------------------
      1 N                    -0.618020
      2 H                     0.206383
      3 H                     0.205623
      4 H                     0.206014
  ----------------------------------------
  Sum of atomic charges =     0.000000

 -----------------------------------------------------------------
                    Cartesian Multipole Moments
 -----------------------------------------------------------------
    Charge (ESU x 10^10)
                -0.0000
    Dipole Moment (Debye)
         X      -0.0042      Y      -0.0012      Z      -1.7374
       Tot       1.7374
    Quadrupole Moments (Debye-Ang)
        XX      -6.2206     XY       0.0003     YY      -6.2199
        XZ       0.0016     YZ       0.0004     ZZ      -9.1247
    Octopole Moments (Debye-Ang^2)
       XXX       0.8471    XXY      -0.2716    XYY      -0.8569
       YYY       0.2687    XXZ      -0.9387    XYZ       0.0007
       YYZ      -0.9368    XZZ      -0.0005    YZZ      -0.0001
       ZZZ      -1.6698
    Hexadecapole Moments (Debye-Ang^3)
      XXXX      -9.9835   XXXY       0.0012   XXYY      -3.3246
      XYYY       0.0012   YYYY      -9.9772   XXXZ      -0.3282
      XXYZ       0.1052   XYYZ       0.3319   YYYZ      -0.1041
      XXZZ      -3.6560   XYZZ       0.0001   YYZZ      -3.6557
      XZZZ       0.0023   YZZZ       0.0007   ZZZZ     -11.6092
 -----------------------------------------------------------------
 Calculating analytic gradient of the SCF energy
 Gradient of SCF Energy
            1           2           3           4
    1   0.0003598   0.0038273  -0.0026664  -0.0015207
    2   0.0000922  -0.0002590  -0.0039644   0.0041312
    3   0.0073260  -0.0019987  -0.0028405  -0.0024868
 Max gradient component =       7.326E-03
 RMS gradient           =       3.278E-03
 Gradient time:  CPU 1.47 s  wall 0.86 s
 Geometry Optimization Parameters
   NAtoms,    NIC,     NZ,  NCons,   NDum,   NFix, NCnnct, MaxDiis
        4      17       0       0       0       0       0       0


** GEOMETRY OPTIMIZATION IN DELOCALIZED INTERNAL COORDINATES **
   Searching for a Minimum

   Optimization Cycle:   1

                       Coordinates (Angstroms)
     ATOM                X               Y               Z
      1  N        -0.0000011806   -0.0000005799    0.1182370928
      2  H         0.9347814452   -0.0959954925   -0.2758843672
      3  H        -0.5505224454   -0.7615408777   -0.2758888234
      4  H        -0.3842507359    0.8575404296   -0.2758864589
   Point Group: c1    Number of degrees of freedom:     6


   Energy is    -56.540227835


 Attempting to generate delocalized internal coordinates
 Initial Hessian constructed with Jon Baker's OPTIMIZE code

  6 Hessian modes will be used to form the next step
  Hessian Eigenvalues:
     0.160000    0.160000    0.160000    0.444977    0.444983    0.444987

 Minimum search - taking simple RFO step
 Searching for Lamda that Minimizes Along All modes
 Value Taken    Lamda =  -0.00018552
 Step Taken.  Stepsize is  0.022258

                             Maximum     Tolerance    Cnvgd?
         Gradient           0.007735      0.000300      NO
         Displacement       0.021717      0.001200      NO
         Energy change     *********      0.000001      NO


 New Cartesian Coordinates Obtained by Inverse Iteration

 Displacement from previous Coordinates is:  0.016629
 ----------------------------------------------------------------
             Standard Nuclear Orientation (Angstroms)
    I     Atom           X                Y                Z
 ----------------------------------------------------------------
    1      N       0.0002084701     0.0000989959     0.1125957090
    2      H       0.9324245593    -0.0962766443    -0.2739484439
    3      H      -0.5486622272    -0.7578621573    -0.2740652550
    4      H      -0.3839637189     0.8540432852    -0.2740045668
 ----------------------------------------------------------------
 Molecular Point Group                 C1    NOp =  1
 Largest Abelian Subgroup              C1    NOp =  1
 Nuclear Repulsion Energy =          11.94750229 hartrees
 There are        5 alpha and        5 beta electrons
 Applying Cartesian multipole field
    Component          Value
    ---------          -----
     (2,0,0)        1.00000E-10
     (0,2,0)        2.00000E-10
     (0,0,2)       -3.00000E-10
 Nucleus-field energy     =     0.0000000011 hartrees
 Requested basis set is def2-TZVP
 There are 23 shells and 49 basis functions
 A cutoff of  1.0D-10 yielded    276 shell pairs
 There are      1284 function pairs (      1578 Cartesian)
 Smallest overlap matrix eigenvalue = 4.96E-03
 Guess MOs from SCF MO coefficient file

 -----------------------------------------------------------------------
  General SCF calculation program by
  Eric Jon Sundstrom, Paul Horn, Yuezhi Mao, Dmitri Zuev, Alec White,
  David Stuck, Shaama M.S., Shane Yost, Joonho Lee, David Small,
  Daniel Levine, Susi Lehtola, Hugh Burton, Evgeny Epifanovsky
 -----------------------------------------------------------------------
 Exchange:     0.2700 Hartree-Fock + 1.0000 M06
 Correlation:  1.0000 M06
 Using SG-3 standard quadrature grid
 using 4 threads for integral computing
 -------------------------------------------------------
 OpenMP Integral computing Module                
 Release: version 2.0, May 2017, Q-Chem Inc. Pleasanton 
 -------------------------------------------------------
 A restricted SCF calculation will be
 performed using DIIS
 SCF converges when DIIS error is below 1.0e-07
 ---------------------------------------
  Cycle       Energy         DIIS error
 ---------------------------------------
    1     -56.5403025496      3.54e-04  
    2     -56.5403275829      2.03e-04  
    3     -56.5403334579      1.25e-04  
    4     -56.5403371804      8.20e-06  
    5     -56.5403372010      1.65e-06  
    6     -56.5403372018      2.14e-07  
    7     -56.5403372016      2.52e-08  Convergence criterion met
 ---------------------------------------
 SCF time:   CPU 4.02s  wall 1.00s 
 SCF   energy in the final basis set =      -56.5403372016
 Total energy in the final basis set =      -56.5403372016
 
 --------------------------------------------------------------
 
                    Orbital Energies (a.u.)
 --------------------------------------------------------------
 
 Alpha MOs
 -- Occupied --
-14.3592  -0.8669  -0.4692  -0.4689  -0.2814
 -- Virtual --
  0.0246   0.0943   0.0945   0.3033   0.3034   0.3571   0.4132   0.4957
  0.4967   0.4996   0.9146   0.9151   1.1460   1.2285   1.2290   1.6033
  1.7166   1.7191   1.7488   1.9830   2.0037   2.0090   2.3033   2.3072
  2.3097   2.4334   2.4695   2.4762   2.9883   3.2197   3.2205   4.0379
  4.2847   4.2849   4.3946   4.6030   4.6031   4.6366   4.8668   4.8681
  5.2684   5.3040   5.6167  31.4822
 --------------------------------------------------------------
 
          Ground-State Mulliken Net Atomic Charges

     Atom                 Charge (a.u.)
  ----------------------------------------
      1 N                    -0.614897
      2 H                     0.205533
      3 H                     0.204412
      4 H                     0.204952
  ----------------------------------------
  Sum of atomic charges =     0.000000

 -----------------------------------------------------------------
                    Cartesian Multipole Moments
 -----------------------------------------------------------------
    Charge (ESU x 10^10)
                -0.0000
    Dipole Moment (Debye)
         X      -0.0056      Y      -0.0018      Z      -1.7204
       Tot       1.7204
    Quadrupole Moments (Debye-Ang)
        XX      -6.1986     XY      -0.0034     YY      -6.2073
        XZ       0.0026     YZ       0.0008     ZZ      -9.1115
    Octopole Moments (Debye-Ang^2)
       XXX       0.8379    XXY      -0.2702    XYY      -0.8520
       YYY       0.2653    XXZ      -0.9088    XYZ       0.0016
       YYZ      -0.9046    XZZ      -0.0031    YZZ      -0.0012
       ZZZ      -1.5719
    Hexadecapole Moments (Debye-Ang^3)
      XXXX      -9.8888   XXXY       0.0013   XXYY      -3.2924
      XYYY       0.0013   YYYY      -9.8814   XXXZ      -0.3227
      XXYZ       0.1035   XYYZ       0.3266   YYYZ      -0.1024
      XXZZ      -3.6292   XYZZ       0.0008   YYZZ      -3.6271
      XZZZ       0.0032   YZZZ       0.0009   ZZZZ     -11.5167
 -----------------------------------------------------------------
 Calculating analytic gradient of the SCF energy
 Gradient of SCF Energy
            1           2           3           4
    1  -0.0001638   0.0002607  -0.0000659  -0.0000309
    2  -0.0000606  -0.0000035  -0.0001429   0.0002069
    3   0.0020040  -0.0003503  -0.0009593  -0.0006944
 Max gradient component =       2.004E-03
 RMS gradient           =       6.897E-04
 Gradient time:  CPU 1.28 s  wall 0.48 s
 Geometry Optimization Parameters
   NAtoms,    NIC,     NZ,  NCons,   NDum,   NFix, NCnnct, MaxDiis
        4      17       0       0       0       0       0       0

 Cartesian Hessian Update
 Hessian updated using BFGS update


** GEOMETRY OPTIMIZATION IN DELOCALIZED INTERNAL COORDINATES **
   Searching for a Minimum

   Optimization Cycle:   2

                       Coordinates (Angstroms)
     ATOM                X               Y               Z
      1  N         0.0002084701    0.0000989959    0.1125957090
      2  H         0.9324245593   -0.0962766443   -0.2739484439
      3  H        -0.5486622272   -0.7578621573   -0.2740652550
      4  H        -0.3839637189    0.8540432852   -0.2740045668
   Point Group: c1    Number of degrees of freedom:     6


   Energy is    -56.540337202

 Hessian updated using BFGS update

  5 Hessian modes will be used to form the next step
  Hessian Eigenvalues:
     0.126350    0.160410    0.443890    0.444983    0.465553

 Minimum search - taking simple RFO step
 Searching for Lamda that Minimizes Along All modes
 Value Taken    Lamda =  -0.00002460
 Step Taken.  Stepsize is  0.013875

                             Maximum     Tolerance    Cnvgd?
         Gradient           0.001619      0.000300      NO
         Displacement       0.011429      0.001200      NO
         Energy change     -0.000109      0.000001      NO


 New Cartesian Coordinates Obtained by Inverse Iteration

 Displacement from previous Coordinates is:  0.012593
 ----------------------------------------------------------------
             Standard Nuclear Orientation (Angstroms)
    I     Atom           X                Y                Z
 ----------------------------------------------------------------
    1      N       0.0002843086     0.0001292688     0.1073318222
    2      H       0.9340844749    -0.0965234758    -0.2721728359
    3      H      -0.5496027581    -0.7589983560    -0.2723307180
    4      H      -0.3847589421     0.8553960424    -0.2722508250
 ----------------------------------------------------------------
 Molecular Point Group                 C1    NOp =  1
 Largest Abelian Subgroup              C1    NOp =  1
 Nuclear Repulsion Energy =          11.95890132 hartrees
 There are        5 alpha and        5 beta electrons
 Applying Cartesian multipole field
    Component          Value
    ---------          -----
     (2,0,0)        1.00000E-10
     (0,2,0)        2.00000E-10
     (0,0,2)       -3.00000E-10
 Nucleus-field energy     =     0.0000000011 hartrees
 Requested basis set is def2-TZVP
 There are 23 shells and 49 basis functions
 A cutoff of  1.0D-10 yielded    276 shell pairs
 There are      1284 function pairs (      1578 Cartesian)
 Smallest overlap matrix eigenvalue = 4.95E-03
 Guess MOs from SCF MO coefficient file

 -----------------------------------------------------------------------
  General SCF calculation program by
  Eric Jon Sundstrom, Paul Horn, Yuezhi Mao, Dmitri Zuev, Alec White,
  David Stuck, Shaama M.S., Shane Yost, Joonho Lee, David Small,
  Daniel Levine, Susi Lehtola, Hugh Burton, Evgeny Epifanovsky
 -----------------------------------------------------------------------
 Exchange:     0.2700 Hartree-Fock + 1.0000 M06
 Correlation:  1.0000 M06
 Using SG-3 standard quadrature grid
 using 4 threads for integral computing
 -------------------------------------------------------
 OpenMP Integral computing Module                
 Release: version 2.0, May 2017, Q-Chem Inc. Pleasanton 
 -------------------------------------------------------
 A restricted SCF calculation will be
 performed using DIIS
 SCF converges when DIIS error is below 1.0e-07
 ---------------------------------------
  Cycle       Energy         DIIS error
 ---------------------------------------
    1     -56.5403383073      2.05e-04  
    2     -56.5403507612      5.35e-05  
    3     -56.5403506187      6.03e-05  
    4     -56.5403514793      3.34e-06  
    5     -56.5403514829      8.16e-07  
    6     -56.5403514829      7.03e-08  Convergence criterion met
 ---------------------------------------
 SCF time:   CPU 3.45s  wall 1.00s 
 SCF   energy in the final basis set =      -56.5403514829
 Total energy in the final basis set =      -56.5403514829
 
 --------------------------------------------------------------
 
                    Orbital Energies (a.u.)
 --------------------------------------------------------------
 
 Alpha MOs
 -- Occupied --
-14.3585  -0.8666  -0.4699  -0.4697  -0.2803
 -- Virtual --
  0.0249   0.0944   0.0946   0.3037   0.3038   0.3572   0.4135   0.4959
  0.4965   0.4973   0.9154   0.9160   1.1508   1.2276   1.2282   1.6009
  1.7166   1.7192   1.7474   1.9814   2.0021   2.0075   2.3035   2.3160
  2.3218   2.4285   2.4697   2.4765   2.9855   3.2125   3.2138   4.0453
  4.2892   4.2894   4.4009   4.6009   4.6009   4.6397   4.8679   4.8693
  5.2642   5.3012   5.6265  31.4842
 --------------------------------------------------------------
 
          Ground-State Mulliken Net Atomic Charges

     Atom                 Charge (a.u.)
  ----------------------------------------
      1 N                    -0.616274
      2 H                     0.205988
      3 H                     0.204873
      4 H                     0.205412
  ----------------------------------------
  Sum of atomic charges =     0.000000

 -----------------------------------------------------------------
                    Cartesian Multipole Moments
 -----------------------------------------------------------------
    Charge (ESU x 10^10)
                -0.0000
    Dipole Moment (Debye)
         X      -0.0060      Y      -0.0019      Z      -1.6979
       Tot       1.6979
    Quadrupole Moments (Debye-Ang)
        XX      -6.1788     XY      -0.0039     YY      -6.1890
        XZ       0.0028     YZ       0.0009     ZZ      -9.1176
    Octopole Moments (Debye-Ang^2)
       XXX       0.8455    XXY      -0.2732    XYY      -0.8612
       YYY       0.2676    XXZ      -0.8793    XYZ       0.0017
       YYZ      -0.8748    XZZ      -0.0038    YZZ      -0.0015
       ZZZ      -1.4642
    Hexadecapole Moments (Debye-Ang^3)
      XXXX      -9.8575   XXXY       0.0012   XXYY      -3.2818
      XYYY       0.0013   YYYY      -9.8506   XXXZ      -0.3221
      XXYZ       0.1033   XYYZ       0.3259   YYYZ      -0.1022
      XXZZ      -3.6232   XYZZ       0.0008   YYZZ      -3.6209
      XZZZ       0.0031   YZZZ       0.0009   ZZZZ     -11.4669
 -----------------------------------------------------------------
 Calculating analytic gradient of the SCF energy
 Gradient of SCF Energy
            1           2           3           4
    1  -0.0001516  -0.0000945   0.0001494   0.0000968
    2  -0.0000458   0.0000205   0.0001787  -0.0001535
    3   0.0001873   0.0002623  -0.0003597  -0.0000900
 Max gradient component =       3.597E-04
 RMS gradient           =       1.739E-04
 Gradient time:  CPU 1.29 s  wall 0.48 s
 Geometry Optimization Parameters
   NAtoms,    NIC,     NZ,  NCons,   NDum,   NFix, NCnnct, MaxDiis
        4      17       0       0       0       0       0       0

 Cartesian Hessian Update
 Hessian updated using BFGS update


** GEOMETRY OPTIMIZATION IN DELOCALIZED INTERNAL COORDINATES **
   Searching for a Minimum

   Optimization Cycle:   3

                       Coordinates (Angstroms)
     ATOM                X               Y               Z
      1  N         0.0002843086    0.0001292688    0.1073318222
      2  H         0.9340844749   -0.0965234758   -0.2721728359
      3  H        -0.5496027581   -0.7589983560   -0.2723307180
      4  H        -0.3847589421    0.8553960424   -0.2722508250
   Point Group: c1    Number of degrees of freedom:     6


   Energy is    -56.540351483

 Hessian updated using BFGS update

  6 Hessian modes will be used to form the next step
  Hessian Eigenvalues:
     0.102013    0.160000    0.160207    0.444386    0.444985    0.483419

 Minimum search - taking simple RFO step
 Searching for Lamda that Minimizes Along All modes
 Value Taken    Lamda =  -0.00000121
 Step Taken.  Stepsize is  0.003227

                             Maximum     Tolerance    Cnvgd?
         Gradient           0.000432      0.000300      NO
         Displacement       0.002537      0.001200      NO
         Energy change     -0.000014      0.000001      NO


 New Cartesian Coordinates Obtained by Inverse Iteration

 Displacement from previous Coordinates is:  0.003402
 ----------------------------------------------------------------
             Standard Nuclear Orientation (Angstroms)
    I     Atom           X                Y                Z
 ----------------------------------------------------------------
    1      N       0.0002911822     0.0001268881     0.1061318893
    2      H       0.9347092632    -0.0965705131    -0.2717705927
    3      H      -0.5499943711    -0.7595718826    -0.2719316699
    4      H      -0.3849989910     0.8560189871    -0.2718521835
 ----------------------------------------------------------------
 Molecular Point Group                 C1    NOp =  1
 Largest Abelian Subgroup              C1    NOp =  1
 Nuclear Repulsion Energy =          11.95804501 hartrees
 There are        5 alpha and        5 beta electrons
 Applying Cartesian multipole field
    Component          Value
    ---------          -----
     (2,0,0)        1.00000E-10
     (0,2,0)        2.00000E-10
     (0,0,2)       -3.00000E-10
 Nucleus-field energy     =     0.0000000011 hartrees
 Requested basis set is def2-TZVP
 There are 23 shells and 49 basis functions
 A cutoff of  1.0D-10 yielded    276 shell pairs
 There are      1284 function pairs (      1578 Cartesian)
 Smallest overlap matrix eigenvalue = 4.95E-03
 Guess MOs from SCF MO coefficient file

 -----------------------------------------------------------------------
  General SCF calculation program by
  Eric Jon Sundstrom, Paul Horn, Yuezhi Mao, Dmitri Zuev, Alec White,
  David Stuck, Shaama M.S., Shane Yost, Joonho Lee, David Small,
  Daniel Levine, Susi Lehtola, Hugh Burton, Evgeny Epifanovsky
 -----------------------------------------------------------------------
 Exchange:     0.2700 Hartree-Fock + 1.0000 M06
 Correlation:  1.0000 M06
 Using SG-3 standard quadrature grid
 using 4 threads for integral computing
 -------------------------------------------------------
 OpenMP Integral computing Module                
 Release: version 2.0, May 2017, Q-Chem Inc. Pleasanton 
 -------------------------------------------------------
 A restricted SCF calculation will be
 performed using DIIS
 SCF converges when DIIS error is below 1.0e-07
 ---------------------------------------
  Cycle       Energy         DIIS error
 ---------------------------------------
    1     -56.5403514532      4.65e-05  
    2     -56.5403520948      4.12e-06  
    3     -56.5403521002      2.99e-06  
    4     -56.5403521022      9.28e-07  
    5     -56.5403521024      8.05e-08  Convergence criterion met
 ---------------------------------------
 SCF time:   CPU 2.86s  wall 1.00s 
 SCF   energy in the final basis set =      -56.5403521024
 Total energy in the final basis set =      -56.5403521024
 
 --------------------------------------------------------------
 
                    Orbital Energies (a.u.)
 --------------------------------------------------------------
 
 Alpha MOs
 -- Occupied --
-14.3584  -0.8664  -0.4701  -0.4698  -0.2800
 -- Virtual --
  0.0249   0.0944   0.0946   0.3038   0.3039   0.3573   0.4134   0.4952
  0.4963   0.4972   0.9156   0.9162   1.1519   1.2276   1.2281   1.6001
  1.7164   1.7190   1.7473   1.9809   2.0018   2.0072   2.3025   2.3188
  2.3246   2.4271   2.4692   2.4759   2.9843   3.2105   3.2117   4.0470
  4.2901   4.2902   4.4020   4.6005   4.6005   4.6404   4.8679   4.8694
  5.2626   5.2995   5.6279  31.4844
 --------------------------------------------------------------
 
          Ground-State Mulliken Net Atomic Charges

     Atom                 Charge (a.u.)
  ----------------------------------------
      1 N                    -0.616878
      2 H                     0.206173
      3 H                     0.205089
      4 H                     0.205616
  ----------------------------------------
  Sum of atomic charges =     0.000000

 -----------------------------------------------------------------
                    Cartesian Multipole Moments
 -----------------------------------------------------------------
    Charge (ESU x 10^10)
                -0.0000
    Dipole Moment (Debye)
         X      -0.0060      Y      -0.0019      Z      -1.6922
       Tot       1.6922
    Quadrupole Moments (Debye-Ang)
        XX      -6.1744     XY      -0.0038     YY      -6.1843
        XZ       0.0028     YZ       0.0009     ZZ      -9.1202
    Octopole Moments (Debye-Ang^2)
       XXX       0.8484    XXY      -0.2741    XYY      -0.8642
       YYY       0.2686    XXZ      -0.8724    XYZ       0.0017
       YYZ      -0.8680    XZZ      -0.0038    YZZ      -0.0014
       ZZZ      -1.4385
    Hexadecapole Moments (Debye-Ang^3)
      XXXX      -9.8542   XXXY       0.0012   XXYY      -3.2807
      XYYY       0.0012   YYYY      -9.8475   XXXZ      -0.3223
      XXYZ       0.1033   XYYZ       0.3260   YYYZ      -0.1023
      XXZZ      -3.6231   XYZZ       0.0008   YYZZ      -3.6209
      XZZZ       0.0030   YZZZ       0.0009   ZZZZ     -11.4582
 -----------------------------------------------------------------
 Calculating analytic gradient of the SCF energy
 Gradient of SCF Energy
            1           2           3           4
    1  -0.0001064   0.0000227   0.0000446   0.0000391
    2  -0.0000362   0.0000135   0.0000248  -0.0000022
    3  -0.0000074   0.0003392  -0.0003033  -0.0000285
 Max gradient component =       3.392E-04
 RMS gradient           =       1.371E-04
 Gradient time:  CPU 1.26 s  wall 0.48 s
 Geometry Optimization Parameters
   NAtoms,    NIC,     NZ,  NCons,   NDum,   NFix, NCnnct, MaxDiis
        4      17       0       0       0       0       0       0

 Cartesian Hessian Update
 Hessian updated using BFGS update


** GEOMETRY OPTIMIZATION IN DELOCALIZED INTERNAL COORDINATES **
   Searching for a Minimum

   Optimization Cycle:   4

                       Coordinates (Angstroms)
     ATOM                X               Y               Z
      1  N         0.0002911822    0.0001268881    0.1061318893
      2  H         0.9347092632   -0.0965705131   -0.2717705927
      3  H        -0.5499943711   -0.7595718826   -0.2719316699
      4  H        -0.3849989910    0.8560189871   -0.2718521835
   Point Group: c1    Number of degrees of freedom:     6


   Energy is    -56.540352102

 Hessian updated using BFGS update

  6 Hessian modes will be used to form the next step
  Hessian Eigenvalues:
     0.101612    0.159999    0.160100    0.444357    0.444982    0.473074

 Minimum search - taking simple RFO step
 Searching for Lamda that Minimizes Along All modes
 Value Taken    Lamda =   0.00000000
 Step Taken.  Stepsize is  0.000077

                             Maximum     Tolerance    Cnvgd?
         Gradient           0.000023      0.000300     YES
         Displacement       0.000075      0.001200     YES
         Energy change     -0.000001      0.000001     YES


                       Distance Matrix (Angstroms)
             N (  1)   H (  2)   H (  3)
   H (  2)  1.012570
   H (  3)  1.011379  1.626012
   H (  4)  1.011865  1.627592  1.623994
 
 Final energy is   -56.5403521024495     


 ******************************
 **  OPTIMIZATION CONVERGED  **
 ******************************

                       Coordinates (Angstroms)
     ATOM                X               Y               Z
      1  N         0.0002911822    0.0001268881    0.1061318893
      2  H         0.9347092632   -0.0965705131   -0.2717705927
      3  H        -0.5499943711   -0.7595718826   -0.2719316699
      4  H        -0.3849989910    0.8560189871   -0.2718521835

Z-matrix Print:
$molecule
0 1
N 
H  1 1.011379
H  1 1.011865 2 106.771299
H  1 1.012570 2 106.909286 3 -114.279290 0
$end

 
 --------------------------------------------------------------
 
                    Orbital Energies (a.u.)
 --------------------------------------------------------------
 
 Alpha MOs
 -- Occupied --
-14.3584  -0.8664  -0.4701  -0.4698  -0.2800
 -- Virtual --
  0.0249   0.0944   0.0946   0.3038   0.3039   0.3573   0.4134   0.4952
  0.4963   0.4972   0.9156   0.9162   1.1519   1.2276   1.2281   1.6001
  1.7164   1.7190   1.7473   1.9809   2.0018   2.0072   2.3025   2.3188
  2.3246   2.4271   2.4692   2.4759   2.9843   3.2105   3.2117   4.0470
  4.2901   4.2902   4.4020   4.6005   4.6005   4.6404   4.8679   4.8694
  5.2626   5.2995   5.6279  31.4844
 --------------------------------------------------------------
 
          Ground-State Mulliken Net Atomic Charges

     Atom                 Charge (a.u.)
  ----------------------------------------
      1 N                    -0.616878
      2 H                     0.206173
      3 H                     0.205089
      4 H                     0.205616
  ----------------------------------------
  Sum of atomic charges =     0.000000

 -----------------------------------------------------------------
                    Cartesian Multipole Moments
 -----------------------------------------------------------------
    Charge (ESU x 10^10)
                -0.0000
    Dipole Moment (Debye)
         X      -0.0060      Y      -0.0019      Z      -1.6922
       Tot       1.6922
    Quadrupole Moments (Debye-Ang)
        XX      -6.1744     XY      -0.0038     YY      -6.1843
        XZ       0.0028     YZ       0.0009     ZZ      -9.1202
    Octopole Moments (Debye-Ang^2)
       XXX       0.8484    XXY      -0.2741    XYY      -0.8642
       YYY       0.2686    XXZ      -0.8724    XYZ       0.0017
       YYZ      -0.8680    XZZ      -0.0038    YZZ      -0.0014
       ZZZ      -1.4385
    Hexadecapole Moments (Debye-Ang^3)
      XXXX      -9.8542   XXXY       0.0012   XXYY      -3.2807
      XYYY       0.0012   YYYY      -9.8475   XXXZ      -0.3223
      XXYZ       0.1033   XYYZ       0.3260   YYYZ      -0.1023
      XXZZ      -3.6231   XYZZ       0.0008   YYZZ      -3.6209
      XZZZ       0.0030   YZZZ       0.0009   ZZZZ     -11.4582
 -----------------------------------------------------------------
Archival summary:
1\1\gadi-cpu-clx-0263.gadi.nci.org.au\OPT\ProcedureUnspecified\BasisUnspecified\13\pk8622\TueJun2312:46:512020TueJun2312:46:512020\0\\#,OPT,ProcedureUnspecified,BasisUnspecified,\\0,1\N\H,1,1.01138\H,1,1.01187,2,106.771\H,1,1.01257,2,106.909,3,-114.279,0\\\@

 Total job time:  7.10s(wall), 21.91s(cpu) 
 Tue Jun 23 12:46:51 2020

        *************************************************************
        *                                                           *
        *  Thank you very much for using Q-Chem.  Have a nice day.  *
        *                                                           *
        *************************************************************


 
User input: 2 of 2 
 
                  Welcome to Q-Chem
     A Quantum Leap Into The Future Of Chemistry


 Q-Chem 5.2 (devel), Q-Chem, Inc., Pleasanton, CA (2019)

 Yihan Shao,  Zhengting Gan,  E. Epifanovsky,  A. T. B. Gilbert,  M. Wormit,  
 J. Kussmann,  A. W. Lange,  A. Behn,  Jia Deng,  Xintian Feng,  D. Ghosh,  
 M. Goldey,  P. R. Horn,  L. D. Jacobson,  I. Kaliman,  T. Kus,  A. Landau,  
 Jie Liu,  E. I. Proynov,  R. M. Richard,  R. P. Steele,  E. J. Sundstrom,  
 H. L. Woodcock III,  P. M. Zimmerman,  D. Zuev,  B. Albrecht,  E. Alguire,  
 S. A. Baeppler,  D. Barton,  Z. Benda,  Y. A. Bernard,  E. J. Berquist,  
 K. B. Bravaya,  H. Burton,  D. Casanova,  Chun-Min Chang,  Yunqing Chen,  
 A. Chien,  K. D. Closser,  M. P. Coons,  S. Coriani,  S. Dasgupta,  
 A. L. Dempwolff,  M. Diedenhofen,  Hainam Do,  R. G. Edgar,  Po-Tung Fang,  
 S. Faraji,  S. Fatehi,  Qingguo Feng,  K. D. Fenk,  J. Fosso-Tande,  
 J. Gayvert,  Qinghui Ge,  A. Ghysels,  G. Gidofalvi,  J. Gomes,  
 J. Gonthier,  A. Gunina,  D. Hait,  M. W. D. Hanson-Heine,  
 P. H. P. Harbach,  A. W. Hauser,  M. F. Herbst,  J. E. Herr,  
 E. G. Hohenstein,  Z. C. Holden,  Kerwin Hui,  B. C. Huynh,  T.-C. Jagau,  
 Hyunjun Ji,  B. Kaduk,  K. Khistyaev,  Jaehoon Kim,  P. Klunzinger,  K. Koh,  
 D. Kosenkov,  L. Koulias,  T. Kowalczyk,  C. M. Krauter,  A. Kunitsa,  
 Ka Un Lao,  A. Laurent,  K. V. Lawler,  Joonho Lee,  D. Lefrancois,  
 S. Lehtola,  D. S. Levine,  Yi-Pei Li,  You-Sheng Lin,  Fenglai Liu,  
 E. Livshits,  A. Luenser,  P. Manohar,  E. Mansoor,  S. F. Manzer,  
 Shan-Ping Mao,  Yuezhi Mao,  N. Mardirossian,  A. V. Marenich,  
 T. Markovich,  L. A. Martinez-Martinez,  S. A. Maurer,  N. J. Mayhall,  
 S. C. McKenzie,  J.-M. Mewes,  P. Morgante,  A. F. Morrison,  
 J. W. Mullinax,  K. Nanda,  T. S. Nguyen-Beck,  R. Olivares-Amaya,  
 J. A. Parkhill,  Zheng Pei,  T. M. Perrine,  F. Plasser,  P. Pokhilko,  
 S. Prager,  A. Prociuk,  E. Ramos,  D. R. Rehn,  F. Rob,  M. Scheurer,  
 M. Schneider,  N. Sergueev,  S. M. Sharada,  S. Sharma,  D. W. Small,  
 T. Stauch,  T. Stein,  Yu-Chuan Su,  A. J. W. Thom,  A. Tkatchenko,  
 T. Tsuchimochi,  N. M. Tubman,  L. Vogt,  M. L. Vidal,  O. Vydrov,  
 M. A. Watson,  J. Wenzel,  M. de Wergifosse,  T. A. Wesolowski,  A. White,  
 J. Witte,  A. Yamada,  Jun Yang,  K. Yao,  S. Yeganeh,  S. R. Yost,  
 Zhi-Qiang You,  A. Zech,  Igor Ying Zhang,  Xing Zhang,  Yan Zhao,  
 Ying Zhu,  B. R. Brooks,  G. K. L. Chan,  C. J. Cramer,  M. S. Gordon,  
 W. J. Hehre,  A. Klamt,  M. W. Schmidt,  C. D. Sherrill,  D. G. Truhlar,  
 A. Aspuru-Guzik,  R. Baer,  A. T. Bell,  N. A. Besley,  Jeng-Da Chai,  
 A. E. DePrince, III,  R. A. DiStasio Jr.,  A. Dreuw,  B. D. Dunietz,  
 T. R. Furlani,  Chao-Ping Hsu,  Yousung Jung,  Jing Kong,  D. S. Lambrecht,  
 WanZhen Liang,  C. Ochsenfeld,  V. A. Rassolov,  L. V. Slipchenko,  
 J. E. Subotnik,  T. Van Voorhis,  J. M. Herbert,  A. I. Krylov,  
 P. M. W. Gill,  M. Head-Gordon

 Contributors to earlier versions of Q-Chem not listed above: 
 R. D. Adamson,  B. Austin,  J. Baker,  G. J. O. Beran,  K. Brandhorst,  
 S. T. Brown,  E. F. C. Byrd,  A. K. Chakraborty,  C.-L. Cheng,  
 Siu Hung Chien,  D. M. Chipman,  D. L. Crittenden,  H. Dachsel,  
 R. J. Doerksen,  A. D. Dutoi,  L. Fusti-Molnar,  W. A. Goddard III,  
 A. Golubeva-Zadorozhnaya,  S. R. Gwaltney,  G. Hawkins,  A. Heyden,  
 S. Hirata,  G. Kedziora,  F. J. Keil,  C. Kelley,  Jihan Kim,  R. A. King,  
 R. Z. Khaliullin,  P. P. Korambath,  W. Kurlancheek,  A. M. Lee,  M. S. Lee,  
 S. V. Levchenko,  Ching Yeh Lin,  D. Liotard,  R. C. Lochan,  I. Lotan,  
 P. E. Maslen,  N. Nair,  D. P. O'Neill,  D. Neuhauser,  E. Neuscamman,  
 C. M. Oana,  R. Olson,  B. Peters,  R. Peverati,  P. A. Pieniazek,  
 Y. M. Rhee,  J. Ritchie,  M. A. Rohrdanz,  E. Rosta,  N. J. Russ,  
 H. F. Schaefer III,  N. E. Schultz,  N. Shenvi,  A. C. Simmonett,  A. Sodt,  
 D. Stuck,  K. S. Thanthiriwatte,  V. Vanovschi,  Tao Wang,  A. Warshel,  
 C. F. Williams,  Q. Wu,  X. Xu,  W. Zhang

 Please cite Q-Chem as follows:
 Y. Shao et al., Mol. Phys. 113, 184-215 (2015)
 DOI: 10.1080/00268976.2014.952696

 Q-Chem 5.2.0 for Intel X86 EM64T Linux

 Parts of Q-Chem use Armadillo 8.300.2 (Tropical Shenanigans).
 http://arma.sourceforge.net/

 Q-Chem begins on Tue Jun 23 12:46:51 2020  

Host: gadi-cpu-clx-0263.gadi.nci.org.au
0

     Scratch files written to /jobfs/7626483.gadi-pbs/qchem38409//
NAlpha2: 10
NElect   10
Mult     1
The previous job contains 0 fragments, simply inherited here

Checking the input file for inconsistencies... 	...done.

--------------------------------------------------------------
User input:
--------------------------------------------------------------

$molecule
	READ
$end

$rem
	JOBTYPE	FREQ
	METHOD	M06
	BASIS	def2-TZVP
	ANHAR	TRUE
	SCF_CONVERGENCE	7
	VCI	4
$end
--------------------------------------------------------------
 ----------------------------------------------------------------
             Standard Nuclear Orientation (Angstroms)
    I     Atom           X                Y                Z
 ----------------------------------------------------------------
    1      N       0.0001312314     0.0001200546     0.1133949422
    2      H       0.9155118085     0.2105602264    -0.2648789753
    3      H      -0.2751535850    -0.8967930639    -0.2643001662
    4      H      -0.6412768434     0.6853924556    -0.2645854538
 ----------------------------------------------------------------
 Molecular Point Group                 C1    NOp =  1
 Largest Abelian Subgroup              C1    NOp =  1
 Nuclear Repulsion Energy =          11.95804501 hartrees
 There are        5 alpha and        5 beta electrons
 Requested basis set is def2-TZVP
 There are 23 shells and 49 basis functions

 Total QAlloc Memory Limit   2000 MB
 Mega-Array Size       188 MB
 MEM_STATIC part       192 MB

                       Distance Matrix (Angstroms)
             N (  1)   H (  2)   H (  3)
   H (  2)  1.012570
   H (  3)  1.011379  1.626012
   H (  4)  1.011865  1.627592  1.623994
 
 A cutoff of  1.0D-10 yielded    276 shell pairs
 There are      1284 function pairs (      1578 Cartesian)
 Smallest overlap matrix eigenvalue = 4.95E-03
 Guess from superposition of atomic densities
 Warning:  Energy on first SCF cycle will be non-variational
 SAD guess density has 10.000000 electrons

 -----------------------------------------------------------------------
  General SCF calculation program by
  Eric Jon Sundstrom, Paul Horn, Yuezhi Mao, Dmitri Zuev, Alec White,
  David Stuck, Shaama M.S., Shane Yost, Joonho Lee, David Small,
  Daniel Levine, Susi Lehtola, Hugh Burton, Evgeny Epifanovsky
 -----------------------------------------------------------------------
 Exchange:     0.2700 Hartree-Fock + 1.0000 M06
 Correlation:  1.0000 M06
 Using SG-3 standard quadrature grid
 using 4 threads for integral computing
 -------------------------------------------------------
 OpenMP Integral computing Module                
 Release: version 2.0, May 2017, Q-Chem Inc. Pleasanton 
 -------------------------------------------------------
 A restricted SCF calculation will be
 performed using DIIS
 SCF converges when DIIS error is below 1.0e-07
 ---------------------------------------
  Cycle       Energy         DIIS error
 ---------------------------------------
    1     -56.5208267719      7.42e-02  
    2     -56.4701867869      1.65e-02  
    3     -56.4374128649      2.02e-02  
    4     -56.5402876837      4.80e-04  
    5     -56.5403422873      1.60e-04  
    6     -56.5403469880      4.11e-05  
    7     -56.5403473879      1.75e-06  
    8     -56.5403473888      1.95e-07  
    9     -56.5403473890      3.70e-08  Convergence criterion met
 ---------------------------------------
 SCF time:   CPU 5.19s  wall 1.00s 
 SCF   energy in the final basis set =      -56.5403473890
 Total energy in the final basis set =      -56.5403473890
 
 --------------------------------------------------------------
 
                    Orbital Energies (a.u.)
 --------------------------------------------------------------
 
 Alpha MOs
 -- Occupied --
-14.3584  -0.8664  -0.4703  -0.4696  -0.2800
 -- Virtual --
  0.0249   0.0944   0.0946   0.3036   0.3040   0.3573   0.4134   0.4953
  0.4963   0.4972   0.9156   0.9161   1.1519   1.2276   1.2281   1.6000
  1.7166   1.7186   1.7473   1.9808   2.0014   2.0075   2.3022   2.3188
  2.3248   2.4273   2.4691   2.4758   2.9843   3.2085   3.2137   4.0470
  4.2900   4.2903   4.4020   4.6003   4.6006   4.6404   4.8681   4.8692
  5.2649   5.2964   5.6278  31.4844
 --------------------------------------------------------------
 
          Ground-State Mulliken Net Atomic Charges

     Atom                 Charge (a.u.)
  ----------------------------------------
      1 N                    -0.616839
      2 H                     0.206122
      3 H                     0.205483
      4 H                     0.205234
  ----------------------------------------
  Sum of atomic charges =     0.000000

 -----------------------------------------------------------------
                    Cartesian Multipole Moments
 -----------------------------------------------------------------
    Charge (ESU x 10^10)
                -0.0000
    Dipole Moment (Debye)
         X      -0.0054      Y       0.0016      Z      -1.6922
       Tot       1.6922
    Quadrupole Moments (Debye-Ang)
        XX      -6.1727     XY      -0.0007     YY      -6.1861
        XZ       0.0014     YZ      -0.0011     ZZ      -9.1447
    Octopole Moments (Debye-Ang^2)
       XXX       0.6935    XXY       0.5691    XYY      -0.7041
       YYY      -0.5638    XXZ      -0.9173    XYZ      -0.0012
       YYZ      -0.9129    XZZ      -0.0017    YZZ      -0.0005
       ZZZ      -1.6375
    Hexadecapole Moments (Debye-Ang^3)
      XXXX      -9.8520   XXXY      -0.0034   XXYY      -3.2810
      XYYY      -0.0014   YYYY      -9.8494   XXXZ      -0.2577
      XXYZ      -0.2112   XYYZ       0.2607   YYYZ       0.2083
      XXZZ      -3.6358   XYZZ      -0.0003   YYZZ      -3.6340
      XZZZ       0.0024   YZZZ      -0.0014   ZZZZ     -11.5027
 -----------------------------------------------------------------
 Calculating MO derivatives via CPSCF
    1     0    15    0.0384422  
    2     0    15    0.0098811  
    3     0    15    0.0009668  
    4     0    15    0.0000754  
    5     7     8    0.0000038  
    6    15     0    0.0000002  Converged
 Time for AOints: 0.6 s (CPU) 0.2 s (wall)
 ------------------------------------------------------------------------------
                     AOints        : Timing summary (seconds)
 ------------------------------------------------------------------------------
     job step          cpu (% of tot)      sys (% of tot)     wall (% of tot)
 ------------------------------------------------------------------------------
  AOints            0.5928E+00 ( 4.5)   0.3000E-05 (16.7)   0.1680E+00 ( 5.0)
 ------------------------------------------------------------------------------
   Grand Totals     0.1314E+02          0.1800E-04          0.3354E+01
 ------------------------------------------------------------------------------
 Polarizability Matrix (a.u.)
            1           2           3
    1 -10.9927308  -0.0063535   0.0099281
    2  -0.0063535 -10.9634068  -0.0056496
    3   0.0099281  -0.0056496  -9.4450600
 Calculating analytic Hessian of the SCF energy
 
 Direct stationary perturbation theory relativistic correction:
 
 rels  =       0.017004089717
 relv  =      -0.064641932012
 rel2e =       0.019035573788
 E_rel =      -0.028602268507
 
 Hessian of the SCF Energy
            1           2           3           4           5           6
    1   0.6458616   0.0047400   0.0007191  -0.3543327  -0.0697154   0.1703117
    2   0.0047400   0.6451904   0.0011199  -0.0694372  -0.0744798   0.0406030
    3   0.0007191   0.0011199   0.2122962   0.1169894   0.0281289  -0.0713640
    4  -0.3543327  -0.0694372   0.1169894   0.3847400   0.0767739  -0.1371171
    5  -0.0697154  -0.0744798   0.0281289   0.0767739   0.0746826  -0.0327930
    6   0.1703117   0.0406030  -0.0713640  -0.1371171  -0.0327930   0.0714743
    7  -0.0861962  -0.0900009  -0.0368898  -0.0088861  -0.0346814  -0.0159807
    8  -0.0895727  -0.3452389  -0.1155366   0.0012533  -0.0065247  -0.0059825
    9  -0.0530678  -0.1678573  -0.0710634   0.0070967   0.0155147  -0.0001319
   10  -0.2053327   0.1546981  -0.0808188  -0.0215212   0.0276228  -0.0172140
   11   0.1545481  -0.2254717   0.0862878  -0.0085900   0.0063220  -0.0018275
   12  -0.1179631   0.1261344  -0.0698688   0.0130310  -0.0108506   0.0000216
            7           8           9          10          11          12
    1  -0.0861962  -0.0895727  -0.0530678  -0.2053327   0.1545481  -0.1179631
    2  -0.0900009  -0.3452389  -0.1678573   0.1546981  -0.2254717   0.1261344
    3  -0.0368898  -0.1155366  -0.0710634  -0.0808188   0.0862878  -0.0698688
    4  -0.0088861   0.0012533   0.0070967  -0.0215212  -0.0085900   0.0130310
    5  -0.0346814  -0.0065247   0.0155147   0.0276228   0.0063220  -0.0108506
    6  -0.0159807  -0.0059825  -0.0001319  -0.0172140  -0.0018275   0.0000216
    7   0.0875236   0.0989041   0.0429958   0.0075588   0.0257782   0.0098747
    8   0.0989041   0.3747853   0.1352924  -0.0105846  -0.0230217  -0.0137733
    9   0.0429958   0.1352924   0.0710418   0.0029753   0.0170502   0.0001535
   10   0.0075588  -0.0105846   0.0029753   0.2192951  -0.1717363   0.0950574
   11   0.0257782  -0.0230217   0.0170502  -0.1717363   0.2421714  -0.1015105
   12   0.0098747  -0.0137733   0.0001535   0.0950574  -0.1015105   0.0696937
 **********************************************************************
 **                                                                  **
 **                       VIBRATIONAL ANALYSIS                       **
 **                       --------------------                       **
 **                                                                  **
 **        VIBRATIONAL FREQUENCIES (CM**-1) AND NORMAL MODES         **
 **     FORCE CONSTANTS (mDYN/ANGSTROM) AND REDUCED MASSES (AMU)     **
 **                  INFRARED INTENSITIES (KM/MOL)                   **
 **                                                                  **
 **********************************************************************
 

 Mode:                 1                      2                      3
 Frequency:      1015.46                1641.03                1661.61
 Force Cnst:      0.7174                 1.6925                 1.7333
 Red. Mass:       1.1808                 1.0667                 1.0655
 IR Active:          YES                    YES                    YES
 IR Intens:      173.789                 21.076                 20.941
 Raman Active:       YES                    YES                    YES
               X      Y      Z        X      Y      Z        X      Y      Z
 N          0.000 -0.000 -0.115    0.042 -0.053  0.001   -0.052 -0.041 -0.000
 H          0.203  0.055  0.536   -0.101  0.684  0.101   -0.200  0.287 -0.224
 H         -0.069 -0.198  0.535   -0.621  0.111  0.138    0.381 -0.242  0.205
 H         -0.140  0.149  0.532    0.144 -0.061 -0.256    0.547  0.528  0.021
 TransDip  -0.003  0.003  0.422   -0.091  0.116 -0.004    0.115  0.091  0.000

 Mode:                 4                      5                      6
 Frequency:      3474.62                3608.04                3619.18
 Force Cnst:      7.3034                 8.3573                 8.4145
 Red. Mass:       1.0267                 1.0896                 1.0903
 IR Active:          YES                    YES                    YES
 IR Intens:        0.543                  3.886                  4.230
 Raman Active:       YES                    YES                    YES
               X      Y      Z        X      Y      Z        X      Y      Z
 N         -0.000 -0.004  0.038   -0.069  0.039  0.001   -0.040 -0.069 -0.002
 H          0.545  0.126 -0.179    0.549  0.144 -0.222    0.481  0.096 -0.195
 H         -0.152 -0.490 -0.161   -0.075 -0.168 -0.071    0.222  0.730  0.298
 H         -0.393  0.419 -0.186    0.483 -0.523  0.277   -0.147  0.132 -0.078
 TransDip   0.004  0.000  0.023    0.056 -0.030 -0.001    0.034  0.056 -0.001

 STANDARD THERMODYNAMIC QUANTITIES AT   298.15 K  AND     1.00 ATM

   This Molecule has  0 Imaginary Frequencies
   Zero point vibrational energy:       21.472 kcal/mol

   Atom    1 Element N  Has Mass   14.00307
   Atom    2 Element H  Has Mass    1.00783
   Atom    3 Element H  Has Mass    1.00783
   Atom    4 Element H  Has Mass    1.00783
   Molecular Mass:    17.026560 amu
   Principal axes and moments of inertia in amu*Bohr^2:
                             1           2           3
    Eigenvalues --        6.01339     6.03776     9.51382
          X               1.00000    -0.00001    -0.00006
          Y               0.00001     1.00000    -0.00006
          Z               0.00006     0.00006     1.00000
   Rotational Symmetry Number is   1
   The Molecule is an Asymmetric Top
   Translational Enthalpy:        0.889 kcal/mol
   Rotational Enthalpy:           0.889 kcal/mol
   Vibrational Enthalpy:         21.497 kcal/mol
   gas constant (RT):             0.592 kcal/mol
   Translational Entropy:        34.441  cal/mol.K
   Rotational Entropy:           13.610  cal/mol.K
   Vibrational Entropy:           0.100  cal/mol.K

   Total Enthalpy:               23.867 kcal/mol
   Total Entropy:                48.151  cal/mol.K
 =====================================================
 =====================================================
 = Starting finite difference calculation for ANHAR  =
 Finite diff step size:  9.99854e-02 a.u.

 Low frequencies less than 300 will be treated as rotation
 Anharmonic Force Field will start with mode 1

 Eng[0,0,0,0] = -5.65403473889693e+01


 You need 0.0002128 GB memory


 CoordNormalMode -1 , 0 , 0 , 0
 ----------------------------------------------------------------
             Standard Nuclear Orientation (Angstroms)
    I     Atom           X                Y                Z
 ----------------------------------------------------------------
    1      N       0.0001081427     0.0001452648     0.1194996254
    2      H       0.9047691036     0.2076364941    -0.2932425463
    3      H      -0.2714785889    -0.8863232136    -0.2926111470
    4      H      -0.6338883328     0.6774960598    -0.2927310671
 ----------------------------------------------------------------
 Nuclear Repulsion Energy =          11.93428369 hartrees
 There are        5 alpha and        5 beta electrons

                       Distance Matrix (Angstroms)
             N (  1)   H (  2)   H (  3)
   H (  2)  1.015785
   H (  3)  1.014604  1.606333
   H (  4)  1.015229  1.608799  1.605264
 
 Requested basis set is def2-TZVP
 There are 23 shells and 49 basis functions
 A cutoff of  1.0D-10 yielded    276 shell pairs
 There are      1284 function pairs (      1578 Cartesian)
 Smallest overlap matrix eigenvalue = 4.99E-03
 Guess MOs from SCF MO coefficient file

 -----------------------------------------------------------------------
  General SCF calculation program by
  Eric Jon Sundstrom, Paul Horn, Yuezhi Mao, Dmitri Zuev, Alec White,
  David Stuck, Shaama M.S., Shane Yost, Joonho Lee, David Small,
  Daniel Levine, Susi Lehtola, Hugh Burton, Evgeny Epifanovsky
 -----------------------------------------------------------------------
 Exchange:     0.2700 Hartree-Fock + 1.0000 M06
 Correlation:  1.0000 M06
 Using SG-3 standard quadrature grid
 using 4 threads for integral computing
 -------------------------------------------------------
 OpenMP Integral computing Module                
 Release: version 2.0, May 2017, Q-Chem Inc. Pleasanton 
 -------------------------------------------------------
 A restricted SCF calculation will be
 performed using DIIS
 SCF converges when DIIS error is below 1.0e-07
 ---------------------------------------
  Cycle       Energy         DIIS error
 ---------------------------------------
    1     -56.5397985398      9.90e-04  
    2     -56.5400883932      1.99e-04  
    3     -56.5400854711      2.39e-04  
    4     -56.5400990012      1.24e-05  
    5     -56.5400990529      2.71e-06  
    6     -56.5400990550      2.61e-07  
    7     -56.5400990550      3.41e-08  Convergence criterion met
 ---------------------------------------
 SCF time:   CPU 4.02s  wall 2.00s 
 SCF   energy in the final basis set =      -56.5400990550
 Total energy in the final basis set =      -56.5400990550
 
 --------------------------------------------------------------
 
                    Orbital Energies (a.u.)
 --------------------------------------------------------------
 
 Alpha MOs
 -- Occupied --
-14.3612  -0.8693  -0.4669  -0.4661  -0.2857
 -- Virtual --
  0.0239   0.0944   0.0945   0.3019   0.3022   0.3566   0.4127   0.4949
  0.4956   0.5142   0.9118   0.9123   1.1268   1.2305   1.2309   1.6153
  1.7196   1.7214   1.7527   1.9888   2.0093   2.0149   2.2577   2.2624
  2.3221   2.4547   2.4747   2.4810   3.0066   3.2450   3.2518   4.0115
  4.2693   4.2697   4.3734   4.6113   4.6119   4.6251   4.8639   4.8649
  5.2925   5.3191   5.5843  31.4773
 --------------------------------------------------------------
 
          Ground-State Mulliken Net Atomic Charges

     Atom                 Charge (a.u.)
  ----------------------------------------
      1 N                    -0.607149
      2 H                     0.202936
      3 H                     0.202275
      4 H                     0.201938
  ----------------------------------------
  Sum of atomic charges =     0.000000

 -----------------------------------------------------------------
                    Cartesian Multipole Moments
 -----------------------------------------------------------------
    Charge (ESU x 10^10)
                -0.0000
    Dipole Moment (Debye)
         X      -0.0046      Y       0.0007      Z      -1.8041
       Tot       1.8042
    Quadrupole Moments (Debye-Ang)
        XX      -6.2711     XY      -0.0026     YY      -6.2837
        XZ       0.0008     YZ      -0.0003     ZZ      -9.0334
    Octopole Moments (Debye-Ang^2)
       XXX       0.6504    XXY       0.5337    XYY      -0.6604
       YYY      -0.5292    XXZ      -0.9383    XYZ      -0.0007
       YYZ      -0.9338    XZZ      -0.0013    YZZ      -0.0009
       ZZZ      -1.6342
    Hexadecapole Moments (Debye-Ang^3)
      XXXX      -9.9698   XXXY      -0.0032   XXYY      -3.3211
      XYYY      -0.0012   YYYY      -9.9665   XXXZ      -0.2708
      XXYZ      -0.2215   XYYZ       0.2736   YYYZ       0.2190
      XXZZ      -3.6190   XYZZ       0.0000   YYZZ      -3.6176
      XZZZ       0.0023   YZZZ      -0.0012   ZZZZ     -11.6066
 -----------------------------------------------------------------
 Eng[-1,0,0,0] = -5.65400990550167e+01
 points done 1/204
 CoordNormalMode -1 , -1 , 0 , 0
 ----------------------------------------------------------------
             Standard Nuclear Orientation (Angstroms)
    I     Atom           X                Y                Z
 ----------------------------------------------------------------
    1      N       0.0000850539     0.0001704750     0.1256043087
    2      H       0.8940263986     0.2047127619    -0.3216061172
    3      H      -0.2678035928    -0.8758533633    -0.3209221277
    4      H      -0.6264998222     0.6695996640    -0.3208766805
 ----------------------------------------------------------------
 Nuclear Repulsion Energy =          11.89745701 hartrees
 There are        5 alpha and        5 beta electrons

                       Distance Matrix (Angstroms)
             N (  1)   H (  2)   H (  3)
   H (  2)  1.020277
   H (  3)  1.019102  1.586655
   H (  4)  1.019848  1.590006  1.586533
 
 Requested basis set is def2-TZVP
 There are 23 shells and 49 basis functions
 A cutoff of  1.0D-10 yielded    276 shell pairs
 There are      1284 function pairs (      1578 Cartesian)
 Smallest overlap matrix eigenvalue = 5.05E-03
 Guess MOs from SCF MO coefficient file

 -----------------------------------------------------------------------
  General SCF calculation program by
  Eric Jon Sundstrom, Paul Horn, Yuezhi Mao, Dmitri Zuev, Alec White,
  David Stuck, Shaama M.S., Shane Yost, Joonho Lee, David Small,
  Daniel Levine, Susi Lehtola, Hugh Burton, Evgeny Epifanovsky
 -----------------------------------------------------------------------
 Exchange:     0.2700 Hartree-Fock + 1.0000 M06
 Correlation:  1.0000 M06
 Using SG-3 standard quadrature grid
 using 4 threads for integral computing
 -------------------------------------------------------
 OpenMP Integral computing Module                
 Release: version 2.0, May 2017, Q-Chem Inc. Pleasanton 
 -------------------------------------------------------
 A restricted SCF calculation will be
 performed using DIIS
 SCF converges when DIIS error is below 1.0e-07
 ---------------------------------------
  Cycle       Energy         DIIS error
 ---------------------------------------
    1     -56.5389841073      9.92e-04  
    2     -56.5392697674      2.51e-04  
    3     -56.5392650928      2.95e-04  
    4     -56.5392857578      1.17e-05  
    5     -56.5392858060      3.07e-06  
    6     -56.5392858086      3.01e-07  
    7     -56.5392858086      3.28e-08  Convergence criterion met
 ---------------------------------------
 SCF time:   CPU 4.01s  wall 1.00s 
 SCF   energy in the final basis set =      -56.5392858086
 Total energy in the final basis set =      -56.5392858086
 
 --------------------------------------------------------------
 
                    Orbital Energies (a.u.)
 --------------------------------------------------------------
 
 Alpha MOs
 -- Occupied --
-14.3645  -0.8719  -0.4629  -0.4621  -0.2917
 -- Virtual --
  0.0228   0.0943   0.0944   0.2999   0.3002   0.3558   0.4112   0.4931
  0.4937   0.5361   0.9083   0.9090   1.0981   1.2335   1.2340   1.6312
  1.7234   1.7250   1.7604   1.9936   2.0185   2.0234   2.1952   2.1987
  2.3404   2.4779   2.4815   2.4878   3.0377   3.2734   3.2817   3.9774
  4.2489   4.2495   4.3440   4.6113   4.6256   4.6266   4.8576   4.8586
  5.3163   5.3378   5.5321  31.4688
 --------------------------------------------------------------
 
          Ground-State Mulliken Net Atomic Charges

     Atom                 Charge (a.u.)
  ----------------------------------------
      1 N                    -0.597979
      2 H                     0.199914
      3 H                     0.199230
      4 H                     0.198835
  ----------------------------------------
  Sum of atomic charges =     0.000000

 -----------------------------------------------------------------
                    Cartesian Multipole Moments
 -----------------------------------------------------------------
    Charge (ESU x 10^10)
                -0.0000
    Dipole Moment (Debye)
         X      -0.0037      Y      -0.0002      Z      -1.9067
       Tot       1.9067
    Quadrupole Moments (Debye-Ang)
        XX      -6.3761     XY      -0.0045     YY      -6.3880
        XZ       0.0001     YZ       0.0005     ZZ      -8.9160
    Octopole Moments (Debye-Ang^2)
       XXX       0.6080    XXY       0.4987    XYY      -0.6172
       YYY      -0.4950    XXZ      -0.9501    XYZ      -0.0001
       YYZ      -0.9455    XZZ      -0.0009    YZZ      -0.0012
       ZZZ      -1.6229
    Hexadecapole Moments (Debye-Ang^3)
      XXXX     -10.1055   XXXY      -0.0030   XXYY      -3.3670
      XYYY      -0.0010   YYYY     -10.1017   XXXZ      -0.2812
      XXYZ      -0.2298   XYYZ       0.2838   YYYZ       0.2275
      XXZZ      -3.6082   XYZZ       0.0003   YYZZ      -3.6073
      XZZZ       0.0022   YZZZ      -0.0010   ZZZZ     -11.7236
 -----------------------------------------------------------------
 Eng[-1,-1,0,0] = -5.65392858086347e+01
 points done 2/204
 CoordNormalMode -2 , 0 , 0 , 0
 ----------------------------------------------------------------
             Standard Nuclear Orientation (Angstroms)
    I     Atom           X                Y                Z
 ----------------------------------------------------------------
    1      N      -0.0020723221     0.0029165174     0.1133316964
    2      H       0.9208540947     0.1743711134    -0.2702282303
    3      H      -0.2422776941    -0.9026780053    -0.2716021689
    4      H      -0.6488782365     0.6886116777    -0.2510554409
 ----------------------------------------------------------------
 Nuclear Repulsion Energy =          11.95166189 hartrees
 There are        5 alpha and        5 beta electrons

                       Distance Matrix (Angstroms)
             N (  1)   H (  2)   H (  3)
   H (  2)  1.014055
   H (  3)  1.012904  1.585217
   H (  4)  1.010601  1.651929  1.642543
 
 Requested basis set is def2-TZVP
 There are 23 shells and 49 basis functions
 A cutoff of  1.0D-10 yielded    276 shell pairs
 There are      1284 function pairs (      1578 Cartesian)
 Smallest overlap matrix eigenvalue = 4.95E-03
 Guess MOs from SCF MO coefficient file

 -----------------------------------------------------------------------
  General SCF calculation program by
  Eric Jon Sundstrom, Paul Horn, Yuezhi Mao, Dmitri Zuev, Alec White,
  David Stuck, Shaama M.S., Shane Yost, Joonho Lee, David Small,
  Daniel Levine, Susi Lehtola, Hugh Burton, Evgeny Epifanovsky
 -----------------------------------------------------------------------
 Exchange:     0.2700 Hartree-Fock + 1.0000 M06
 Correlation:  1.0000 M06
 Using SG-3 standard quadrature grid
 using 4 threads for integral computing
 -------------------------------------------------------
 OpenMP Integral computing Module                
 Release: version 2.0, May 2017, Q-Chem Inc. Pleasanton 
 -------------------------------------------------------
 A restricted SCF calculation will be
 performed using DIIS
 SCF converges when DIIS error is below 1.0e-07
 ---------------------------------------
  Cycle       Energy         DIIS error
 ---------------------------------------
    1     -56.5383928364      2.09e-03  
    2     -56.5397271591      3.63e-04  
    3     -56.5397233504      4.14e-04  
    4     -56.5397638776      3.76e-05  
    5     -56.5397642780      7.76e-06  
    6     -56.5397642939      7.65e-07  
    7     -56.5397642940      1.74e-07  
    8     -56.5397642941      2.69e-08  Convergence criterion met
 ---------------------------------------
 SCF time:   CPU 4.58s  wall 1.00s 
 SCF   energy in the final basis set =      -56.5397642941
 Total energy in the final basis set =      -56.5397642941
 
 --------------------------------------------------------------
 
                    Orbital Energies (a.u.)
 --------------------------------------------------------------
 
 Alpha MOs
 -- Occupied --
-14.3585  -0.8662  -0.4780  -0.4615  -0.2799
 -- Virtual --
  0.0248   0.0932   0.0955   0.2986   0.3092   0.3573   0.4130   0.4932
  0.4947   0.4987   0.9092   0.9229   1.1528   1.2260   1.2305   1.5981
  1.7074   1.7283   1.7466   1.9735   2.0024   2.0096   2.2593   2.3245
  2.3556   2.4290   2.4683   2.4754   2.9762   3.1541   3.2718   4.0517
  4.2703   4.3030   4.4071   4.5932   4.6077   4.6419   4.8652   4.8715
  5.2311   5.3142   5.6305  31.4834
 --------------------------------------------------------------
 
          Ground-State Mulliken Net Atomic Charges

     Atom                 Charge (a.u.)
  ----------------------------------------
      1 N                    -0.617436
      2 H                     0.204119
      3 H                     0.202677
      4 H                     0.210640
  ----------------------------------------
  Sum of atomic charges =     0.000000

 -----------------------------------------------------------------
                    Cartesian Multipole Moments
 -----------------------------------------------------------------
    Charge (ESU x 10^10)
                -0.0000
    Dipole Moment (Debye)
         X       0.0180      Y      -0.0285      Z      -1.6906
       Tot       1.6910
    Quadrupole Moments (Debye-Ang)
        XX      -6.1710     XY      -0.1620     YY      -6.1877
        XZ      -0.0436     YZ       0.0560     ZZ      -9.1482
    Octopole Moments (Debye-Ang^2)
       XXX       0.6644    XXY       0.5777    XYY      -0.7103
       YYY      -0.5295    XXZ      -0.9162    XYZ       0.0212
       YYZ      -0.9117    XZZ       0.0045    YZZ      -0.0086
       ZZZ      -1.6357
    Hexadecapole Moments (Debye-Ang^3)
      XXXX      -9.8264   XXXY      -0.0528   XXYY      -3.3198
      XYYY      -0.0325   YYYY      -9.8254   XXXZ      -0.2554
      XXYZ      -0.2102   XYYZ       0.2596   YYYZ       0.2061
      XXZZ      -3.6401   XYZZ       0.0127   YYZZ      -3.6374
      XZZZ       0.0184   YZZZ      -0.0210   ZZZZ     -11.5075
 -----------------------------------------------------------------
 Eng[-2,0,0,0] = -5.65397642941264e+01
 points done 3/204
 CoordNormalMode -2 , -2 , 0 , 0
 ----------------------------------------------------------------
             Standard Nuclear Orientation (Angstroms)
    I     Atom           X                Y                Z
 ----------------------------------------------------------------
    1      N      -0.0042758755     0.0057129803     0.1132684505
    2      H       0.9261963810     0.1381820005    -0.2755774853
    3      H      -0.2094018031    -0.9085629468    -0.2789041716
    4      H      -0.6564796295     0.6918308998    -0.2375254279
 ----------------------------------------------------------------
 Nuclear Repulsion Energy =          11.93438621 hartrees
 There are        5 alpha and        5 beta electrons

                       Distance Matrix (Angstroms)
             N (  1)   H (  2)   H (  3)
   H (  2)  1.017117
   H (  3)  1.015764  1.544432
   H (  4)  1.009546  1.677152  1.662183
 
 Requested basis set is def2-TZVP
 There are 23 shells and 49 basis functions
 A cutoff of  1.0D-10 yielded    276 shell pairs
 There are      1284 function pairs (      1578 Cartesian)
 Smallest overlap matrix eigenvalue = 4.97E-03
 Guess MOs from SCF MO coefficient file

 -----------------------------------------------------------------------
  General SCF calculation program by
  Eric Jon Sundstrom, Paul Horn, Yuezhi Mao, Dmitri Zuev, Alec White,
  David Stuck, Shaama M.S., Shane Yost, Joonho Lee, David Small,
  Daniel Levine, Susi Lehtola, Hugh Burton, Evgeny Epifanovsky
 -----------------------------------------------------------------------
 Exchange:     0.2700 Hartree-Fock + 1.0000 M06
 Correlation:  1.0000 M06
 Using SG-3 standard quadrature grid
 using 4 threads for integral computing
 -------------------------------------------------------
 OpenMP Integral computing Module                
 Release: version 2.0, May 2017, Q-Chem Inc. Pleasanton 
 -------------------------------------------------------
 A restricted SCF calculation will be
 performed using DIIS
 SCF converges when DIIS error is below 1.0e-07
 ---------------------------------------
  Cycle       Energy         DIIS error
 ---------------------------------------
    1     -56.5378879933      7.43e-04  
    2     -56.5380606986      1.07e-04  
    3     -56.5380602904      1.29e-04  
    4     -56.5380642058      8.08e-06  
    5     -56.5380642243      1.99e-06  
    6     -56.5380642255      2.15e-07  
    7     -56.5380642255      5.18e-08  Convergence criterion met
 ---------------------------------------
 SCF time:   CPU 4.04s  wall 1.00s 
 SCF   energy in the final basis set =      -56.5380642255
 Total energy in the final basis set =      -56.5380642255
 
 --------------------------------------------------------------
 
                    Orbital Energies (a.u.)
 --------------------------------------------------------------
 
 Alpha MOs
 -- Occupied --
-14.3589  -0.8658  -0.4856  -0.4527  -0.2796
 -- Virtual --
  0.0245   0.0917   0.0964   0.2942   0.3140   0.3573   0.4120   0.4883
  0.4927   0.4997   0.9043   0.9299   1.1547   1.2249   1.2340   1.5946
  1.6946   1.7433   1.7447   1.9553   2.0053   2.0139   2.2099   2.3266
  2.3815   2.4341   2.4702   2.4806   2.9575   3.0997   3.3346   4.0657
  4.2413   4.3177   4.4167   4.5856   4.6136   4.6479   4.8626   4.8730
  5.1604   5.3598   5.6325  31.4809
 --------------------------------------------------------------
 
          Ground-State Mulliken Net Atomic Charges

     Atom                 Charge (a.u.)
  ----------------------------------------
      1 N                    -0.618815
      2 H                     0.202569
      3 H                     0.200243
      4 H                     0.216004
  ----------------------------------------
  Sum of atomic charges =     0.000000

 -----------------------------------------------------------------
                    Cartesian Multipole Moments
 -----------------------------------------------------------------
    Charge (ESU x 10^10)
                -0.0000
    Dipole Moment (Debye)
         X       0.0406      Y      -0.0580      Z      -1.6880
       Tot       1.6894
    Quadrupole Moments (Debye-Ang)
        XX      -6.1710     XY      -0.3259     YY      -6.1899
        XZ      -0.0895     YZ       0.1137     ZZ      -9.1556
    Octopole Moments (Debye-Ang^2)
       XXX       0.6253    XXY       0.5818    XYY      -0.7110
       YYY      -0.4874    XXZ      -0.9127    XYZ       0.0447
       YYZ      -0.9089    XZZ       0.0097    YZZ      -0.0157
       ZZZ      -1.6312
    Hexadecapole Moments (Debye-Ang^3)
      XXXX      -9.8268   XXXY      -0.1025   XXYY      -3.3576
      XYYY      -0.0636   YYYY      -9.8273   XXXZ      -0.2501
      XXYZ      -0.2068   XYYZ       0.2554   YYYZ       0.2015
      XXZZ      -3.6508   XYZZ       0.0244   YYZZ      -3.6465
      XZZZ       0.0364   YZZZ      -0.0423   ZZZZ     -11.5219
 -----------------------------------------------------------------
 Eng[-2,-2,0,0] = -5.65380642255416e+01
 points done 4/204
 CoordNormalMode -3 , 0 , 0 , 0
 ----------------------------------------------------------------
             Standard Nuclear Orientation (Angstroms)
    I     Atom           X                Y                Z
 ----------------------------------------------------------------
    1      N       0.0029010867     0.0023014379     0.1134019367
    2      H       0.9260863412     0.1953614755    -0.2530304789
    3      H      -0.2952904285    -0.8839906578    -0.2751439453
    4      H      -0.6701996708     0.6574800544    -0.2656873542
 ----------------------------------------------------------------
 Nuclear Repulsion Energy =          11.95253635 hartrees
 There are        5 alpha and        5 beta electrons

                       Distance Matrix (Angstroms)
             N (  1)   H (  2)   H (  3)
   H (  2)  1.011838
   H (  3)  1.012620  1.630108
   H (  4)  1.012933  1.661879  1.586436
 
 Requested basis set is def2-TZVP
 There are 23 shells and 49 basis functions
 A cutoff of  1.0D-10 yielded    276 shell pairs
 There are      1284 function pairs (      1578 Cartesian)
 Smallest overlap matrix eigenvalue = 4.95E-03
 Guess MOs from SCF MO coefficient file

 -----------------------------------------------------------------------
  General SCF calculation program by
  Eric Jon Sundstrom, Paul Horn, Yuezhi Mao, Dmitri Zuev, Alec White,
  David Stuck, Shaama M.S., Shane Yost, Joonho Lee, David Small,
  Daniel Levine, Susi Lehtola, Hugh Burton, Evgeny Epifanovsky
 -----------------------------------------------------------------------
 Exchange:     0.2700 Hartree-Fock + 1.0000 M06
 Correlation:  1.0000 M06
 Using SG-3 standard quadrature grid
 using 4 threads for integral computing
 -------------------------------------------------------
 OpenMP Integral computing Module                
 Release: version 2.0, May 2017, Q-Chem Inc. Pleasanton 
 -------------------------------------------------------
 A restricted SCF calculation will be
 performed using DIIS
 SCF converges when DIIS error is below 1.0e-07
 ---------------------------------------
  Cycle       Energy         DIIS error
 ---------------------------------------
    1     -56.5388865935      1.64e-03  
    2     -56.5397451136      1.58e-04  
    3     -56.5397502794      1.41e-04  
    4     -56.5397548014      3.13e-05  
    5     -56.5397550400      5.18e-06  
    6     -56.5397550474      5.00e-07  
    7     -56.5397550475      1.06e-07  
    8     -56.5397550476      2.03e-08  Convergence criterion met
 ---------------------------------------
 SCF time:   CPU 4.58s  wall 1.00s 
 SCF   energy in the final basis set =      -56.5397550476
 Total energy in the final basis set =      -56.5397550476
 
 --------------------------------------------------------------
 
                    Orbital Energies (a.u.)
 --------------------------------------------------------------
 
 Alpha MOs
 -- Occupied --
-14.3585  -0.8663  -0.4776  -0.4619  -0.2799
 -- Virtual --
  0.0248   0.0931   0.0957   0.2983   0.3095   0.3573   0.4131   0.4928
  0.4959   0.4983   0.9091   0.9234   1.1525   1.2255   1.2308   1.5984
  1.7074   1.7296   1.7473   1.9756   2.0030   2.0086   2.2630   2.3228
  2.3528   2.4249   2.4732   2.4776   2.9752   3.1598   3.2710   4.0515
  4.2723   4.2992   4.4077   4.5939   4.6071   4.6417   4.8640   4.8730
  5.2157   5.3433   5.6246  31.4834
 --------------------------------------------------------------
 
          Ground-State Mulliken Net Atomic Charges

     Atom                 Charge (a.u.)
  ----------------------------------------
      1 N                    -0.617170
      2 H                     0.210840
      3 H                     0.201273
      4 H                     0.205057
  ----------------------------------------
  Sum of atomic charges =     0.000000

 -----------------------------------------------------------------
                    Cartesian Multipole Moments
 -----------------------------------------------------------------
    Charge (ESU x 10^10)
                -0.0000
    Dipole Moment (Debye)
         X      -0.0350      Y      -0.0228      Z      -1.6918
       Tot       1.6923
    Quadrupole Moments (Debye-Ang)
        XX      -6.0135     XY       0.0029     YY      -6.3465
        XZ       0.0583     YZ       0.0431     ZZ      -9.1467
    Octopole Moments (Debye-Ang^2)
       XXX       0.7219    XXY       0.5731    XYY      -0.6899
       YYY      -0.5391    XXZ      -0.9381    XYZ      -0.0021
       YYZ      -0.8900    XZZ      -0.0100    YZZ      -0.0076
       ZZZ      -1.6360
    Hexadecapole Moments (Debye-Ang^3)
      XXXX      -9.7896   XXXY      -0.0405   XXYY      -3.2791
      XYYY       0.0375   YYYY      -9.9397   XXXZ      -0.2566
      XXYZ      -0.2098   XYYZ       0.2591   YYYZ       0.2071
      XXZZ      -3.6531   XYZZ       0.0004   YYZZ      -3.6229
      XZZZ      -0.0163   YZZZ      -0.0143   ZZZZ     -11.5076
 -----------------------------------------------------------------
[...]
 VCI[3] |  2  0  0  0  1  0 >    5492.12 
 VCI[3] |  2  0  0  0  0  1 >    5503.94 
 VCI[3] |  1  1  0  1  0  0 >    6063.00 
 VCI[3] |  1  0  1  1  0  0 >    6079.14 
 VCI[3] |  1  1  0  0  0  1 >    6161.63 
 VCI[3] |  1  0  1  0  1  0 >    6172.95 
 VCI[3] |  1  1  0  0  1  0 >    6191.96 
 VCI[3] |  1  0  1  0  0  1 >    6207.42 
 VCI[3] |  0  2  0  1  0  0 >    6707.26 
 VCI[3] |  0  0  2  1  0  0 >    6777.66 
 VCI[3] |  0  1  1  1  0  0 >    6794.23 
 VCI[3] |  0  2  0  0  0  1 >    6810.85 
 VCI[3] |  0  0  2  0  1  0 >    6837.61 
 VCI[3] |  0  2  0  0  1  0 >    6862.52 
 VCI[3] |  0  2  0  0  1  0 >    6880.49 
 VCI[3] |  0  1  1  0  1  0 >    6882.80 
 VCI[3] |  0  1  1  0  0  1 >    6902.03 
 VCI[3] |  0  0  2  0  0  1 >    6913.80 
 VCI[3] |  0  2  0  0  1  0 >    6952.39 
 VCI[3] |  0  0  0  1  1  0 >    6989.13 
 VCI[3] |  0  0  0  0  0  2 >    7040.74 
 VCI[3] |  0  0  0  0  2  0 >    7043.84 
 VCI[3] |  0  0  0  0  1  1 >    7138.16 
 VCI[3] |  1  0  0  2  0  0 >    8129.08 
 VCI[3] |  1  0  0  0  0  2 >    8218.22 
 VCI[3] |  1  0  0  0  1  1 >    8319.71 
 VCI[3] |  1  0  0  1  1  0 >    8366.41 
 VCI[3] |  1  0  0  1  1  0 >    8529.57 
 VCI[3] |  1  0  0  0  0  2 >    8585.94 
 VCI[3] |  0  1  0  2  0  0 >    8888.13 
 VCI[3] |  0  0  1  2  0  0 >    8905.13 
 VCI[3] |  0  1  0  0  2  0 >    8948.93 
 VCI[3] |  0  0  1  0  0  2 >    8979.53 
 VCI[3] |  0  1  0  0  1  1 >    9042.95 
 VCI[3] |  0  0  1  0  1  1 >    9065.47 
 VCI[3] |  0  1  0  1  1  0 >    9123.94 
 VCI[3] |  0  0  1  1  1  0 >    9170.85 
 VCI[3] |  0  0  1  1  1  0 >    9294.89 
 VCI[3] |  0  1  0  1  0  1 >    9303.19 
 VCI[3] |  0  1  0  0  2  0 >    9377.02 
 VCI[3] |  0  0  1  0  0  2 >    9394.58 
 VCI[3] |  0  0  0  1  0  2 >   11199.59 
 VCI[3] |  0  0  0  0  3  0 >   11297.38 
 VCI[3] |  0  0  0  0  1  2 >   11366.48 
 VCI[3] |  0  0  0  0  2  1 >   11367.85 
 VCI[3] |  0  0  0  3  0  0 >   11573.08 
 VCI[3] |  0  0  0  2  0  1 >   11665.39 
 VCI[3] |  0  0  0  1  1  1 >   11849.93 
 VCI[3] |  0  0  0  2  1  0 >   12073.24 
 VCI[3] |  0  0  0  1  2  0 >   12418.22 
 VCI[3] |  0  0  0  1  0  2 >   12487.00 
 -----------------------------------------------------------
 VCI[3] construnction time:  CPU    0.11 s  wall    0.03 s
 -----------------------------------------------------------
 VCI[4] |  1  0  0  0  0  0 >     863.95 
 VCI[4] |  0  1  0  0  0  0 >    1585.46 
 VCI[4] |  0  0  1  0  0  0 >    1599.22 
 VCI[4] |  2  0  0  0  0  0 >    1753.14 
 VCI[4] |  1  1  0  0  0  0 >    2509.39 
 VCI[4] |  1  0  1  0  0  0 >    2523.34 
 VCI[4] |  3  0  0  0  0  0 >    2718.76 
 VCI[4] |  0  2  0  0  0  0 >    3192.07 
 VCI[4] |  0  0  2  0  0  0 >    3220.67 
 VCI[4] |  0  1  1  0  0  0 >    3228.42 
 VCI[4] |  0  0  0  1  0  0 >    3337.67 
 VCI[4] |  2  1  0  0  0  0 >    3393.32 
 VCI[4] |  2  0  1  0  0  0 >    3405.73 
 VCI[4] |  0  0  0  0  1  0 >    3457.83 
 VCI[4] |  0  0  0  0  0  1 >    3465.57 
 VCI[4] |  1  2  0  0  0  0 >    4094.62 
 VCI[4] |  1  0  2  0  0  0 >    4121.65 
 VCI[4] |  1  1  1  0  0  0 >    4125.40 
 VCI[4] |  1  0  0  1  0  0 >    4314.30 
 VCI[4] |  4  0  0  0  0  0 >    4336.74 
 VCI[4] |  1  0  0  0  1  0 >    4410.84 
 VCI[4] |  1  0  0  0  0  1 >    4423.10 
 VCI[4] |  3  0  1  0  0  0 >    4722.76 
 VCI[4] |  3  1  0  0  0  0 >    4723.60 
 VCI[4] |  0  3  0  0  0  0 >    4764.11 
 VCI[4] |  0  0  3  0  0  0 >    4798.39 
 VCI[4] |  0  2  1  0  0  0 >    4811.54 
 VCI[4] |  0  1  2  0  0  0 >    4824.26 
 VCI[4] |  0  0  1  1  0  0 >    4969.28 
 VCI[4] |  0  1  0  1  0  0 >    4974.77 
 VCI[4] |  0  1  0  0  0  1 >    5072.93 
 VCI[4] |  0  1  0  0  1  0 >    5081.03 
 VCI[4] |  0  0  1  0  0  1 >    5091.78 
 VCI[4] |  0  0  1  0  1  0 >    5097.66 
 VCI[4] |  2  2  0  0  0  0 >    5164.29 
 VCI[4] |  2  0  2  0  0  0 >    5192.16 
 VCI[4] |  2  1  1  0  0  0 >    5215.94 
 VCI[4] |  2  0  0  0  0  1 >    5248.77 
 VCI[4] |  2  0  0  0  1  0 >    5299.36 
 VCI[4] |  2  0  0  0  0  1 >    5316.69 
 VCI[4] |  1  3  0  0  0  0 >    5744.45 
 VCI[4] |  1  0  3  0  0  0 >    5769.42 
 VCI[4] |  1  2  1  0  0  0 >    5783.76 
 VCI[4] |  1  1  2  0  0  0 >    5798.85 
 VCI[4] |  1  1  0  1  0  0 >    5921.69 
 VCI[4] |  1  0  1  1  0  0 >    5924.01 
 VCI[4] |  1  1  0  0  0  1 >    5998.17 
 VCI[4] |  1  1  0  0  1  0 >    6004.58 
 VCI[4] |  1  0  1  0  0  1 >    6009.02 
 VCI[4] |  1  0  1  0  1  0 >    6027.78 
 VCI[4] |  3  0  0  1  0  0 >    6330.93 
 VCI[4] |  0  4  0  0  0  0 >    6360.55 
 VCI[4] |  0  3  1  0  0  0 >    6397.40 
 VCI[4] |  0  0  4  0  0  0 >    6401.87 
 VCI[4] |  0  2  2  0  0  0 >    6433.57 
 VCI[4] |  3  0  0  0  1  0 >    6435.06 
 VCI[4] |  0  1  3  0  0  0 >    6444.41 
 VCI[4] |  3  0  0  0  0  1 >    6446.99 
 VCI[4] |  0  2  0  1  0  0 >    6559.30 
 VCI[4] |  0  0  2  1  0  0 >    6579.38 
 VCI[4] |  0  1  1  1  0  0 >    6606.53 
 VCI[4] |  0  2  0  0  0  1 >    6642.56 
 VCI[4] |  0  2  0  0  1  0 >    6671.16 
 VCI[4] |  0  1  1  0  0  1 >    6677.52 
 VCI[4] |  0  0  2  0  0  1 >    6682.44 
 VCI[4] |  0  1  1  0  1  0 >    6688.94 
 VCI[4] |  0  0  2  0  1  0 >    6706.70 
 VCI[4] |  0  0  0  2  0  0 >    6718.43 
 VCI[4] |  0  0  0  2  0  0 >    6810.94 
 VCI[4] |  0  0  0  1  0  1 >    6874.12 
 VCI[4] |  2  1  0  1  0  0 >    6927.14 
 VCI[4] |  2  0  1  1  0  0 >    6935.08 
 VCI[4] |  0  0  0  0  2  0 >    6956.58 
 VCI[4] |  0  0  0  0  0  2 >    6966.41 
 VCI[4] |  2  1  0  0  0  1 >    7025.10 
 VCI[4] |  2  0  1  0  1  0 >    7033.23 
 VCI[4] |  2  1  0  0  1  0 >    7054.34 
 VCI[4] |  2  0  1  0  0  1 >    7063.82 
 VCI[4] |  0  0  0  0  1  1 >    7066.85 
 VCI[4] |  1  2  0  1  0  0 >    7559.74 
 VCI[4] |  1  0  2  1  0  0 >    7605.85 
 VCI[4] |  1  1  1  1  0  0 >    7612.42 
 VCI[4] |  1  2  0  0  0  1 >    7657.05 
 VCI[4] |  1  0  2  0  1  0 >    7680.03 
 VCI[4] |  1  2  0  0  1  0 >    7711.95 
 VCI[4] |  1  1  1  0  1  0 >    7716.27 
 VCI[4] |  1  1  1  0  0  1 >    7730.83 
 VCI[4] |  1  2  0  0  1  0 >    7743.35 
 VCI[4] |  1  0  2  0  0  1 >    7752.06 
 VCI[4] |  1  0  0  2  0  0 >    7821.05 
 VCI[4] |  1  0  0  1  0  1 >    7865.42 
 VCI[4] |  1  0  0  0  0  2 >    7919.35 
 VCI[4] |  1  0  0  0  2  0 >    7925.75 
 VCI[4] |  1  0  0  0  1  1 >    8029.86 
 VCI[4] |  0  3  0  1  0  0 >    8195.32 
 VCI[4] |  0  0  1  2  0  0 >    8233.71 
 VCI[4] |  0  0  3  1  0  0 >    8287.49 
 VCI[4] |  0  3  0  0  0  1 >    8288.73 
 VCI[4] |  0  1  2  1  0  0 >    8307.56 
 VCI[4] |  0  0  3  0  1  0 >    8344.88 
 VCI[4] |  0  2  1  0  0  1 >    8360.84 
 VCI[4] |  0  1  2  0  1  0 >    8374.14 
 VCI[4] |  0  1  2  0  1  0 >    8392.86 
 VCI[4] |  0  2  1  0  1  0 >    8394.15 
 VCI[4] |  0  1  2  1  0  0 >    8434.02 
 VCI[4] |  0  0  3  0  0  1 >    8441.08 
 VCI[4] |  0  2  1  0  1  0 >    8443.14 
 VCI[4] |  0  1  2  0  0  1 >    8450.63 
 VCI[4] |  0  3  0  0  1  0 >    8503.88 
 VCI[4] |  0  0  1  2  0  0 >    8513.80 
 VCI[4] |  0  1  0  0  0  2 >    8521.54 
 VCI[4] |  0  0  1  1  1  0 >    8553.63 
 VCI[4] |  0  1  0  0  0  2 >    8569.36 
 VCI[4] |  0  0  1  0  2  0 >    8589.86 
 VCI[4] |  0  0  1  0  0  2 >    8595.28 
 VCI[4] |  0  1  0  0  2  0 >    8613.49 
 VCI[4] |  0  1  0  0  1  1 >    8664.64 
 VCI[4] |  0  0  1  0  1  1 >    8702.45 
 VCI[4] |  2  0  0  2  0  0 >    8845.82 
 VCI[4] |  2  0  0  1  0  1 >    8957.51 
 VCI[4] |  2  0  0  1  1  0 >    9051.70 
 VCI[4] |  2  0  0  0  1  1 >    9086.79 
 VCI[4] |  2  0  0  1  1  0 >    9230.50 
 VCI[4] |  2  0  0  0  0  2 >    9294.53 
 VCI[4] |  1  1  0  2  0  0 >    9604.08 
 VCI[4] |  1  0  1  2  0  0 >    9617.49 
 VCI[4] |  1  1  0  1  0  1 >    9690.94 
 VCI[4] |  1  0  1  0  0  2 >    9719.81 
 VCI[4] |  1  1  0  0  1  1 >    9797.53 
 VCI[4] |  1  0  1  0  1  1 >    9814.62 
 VCI[4] |  1  1  0  0  1  1 >    9823.82 
 VCI[4] |  1  0  1  0  1  1 >    9863.52 
 VCI[4] |  1  0  1  1  1  0 >    9989.63 
 VCI[4] |  1  1  0  0  0  2 >    9993.58 
 VCI[4] |  1  1  0  0  2  0 >   10072.33 
 VCI[4] |  1  0  1  0  0  2 >   10082.69 
 VCI[4] |  0  0  0  3  0  0 >   10224.92 
 VCI[4] |  0  0  0  2  0  1 >   10290.81 
 VCI[4] |  0  0  0  2  1  0 >   10322.60 
 VCI[4] |  0  2  0  0  2  0 >   10381.79 
 VCI[4] |  0  1  1  2  0  0 >   10385.66 
 VCI[4] |  0  0  0  2  0  1 >   10422.42 
 VCI[4] |  0  2  0  2  0  0 >   10429.82 
 VCI[4] |  0  2  0  0  1  1 >   10450.58 
 VCI[4] |  0  1  1  0  0  2 >   10451.42 
 VCI[4] |  0  0  0  0  0  3 >   10476.14 
 VCI[4] |  0  2  0  0  1  1 >   10499.57 
 VCI[4] |  0  0  2  0  1  1 >   10501.52 
 VCI[4] |  0  2  0  0  0  2 >   10519.30 
 VCI[4] |  0  1  1  0  1  1 >   10545.97 
 VCI[4] |  0  0  2  0  1  1 >   10581.52 
 VCI[4] |  0  0  0  0  1  2 >   10589.66 
 VCI[4] |  0  2  0  0  1  1 >   10611.66 
 VCI[4] |  0  1  1  1  1  0 >   10620.55 
 VCI[4] |  0  2  0  1  0  1 >   10630.18 
 VCI[4] |  0  0  0  0  2  1 >   10656.11 
 VCI[4] |  0  0  2  1  1  0 >   10684.57 
 VCI[4] |  0  0  2  0  2  0 >   10767.89 
 VCI[4] |  0  1  1  1  1  0 >   10789.34 
 VCI[4] |  0  2  0  1  0  1 >   10789.98 
 VCI[4] |  0  0  2  1  1  0 >   10821.23 
 VCI[4] |  0  1  1  0  0  2 >   10844.00 
 VCI[4] |  0  2  0  0  2  0 >   10893.60 
 VCI[4] |  0  0  2  0  0  2 >   10927.02 
 VCI[4] |  1  0  0  3  0  0 >   11832.57 
 VCI[4] |  1  0  0  0  3  0 >   11972.45 
 VCI[4] |  1  0  0  2  0  1 >   12023.39 
 VCI[4] |  1  0  0  0  1  2 >   12034.45 
 VCI[4] |  1  0  0  3  0  0 >   12144.38 
 VCI[4] |  1  0  0  1  2  0 >   12232.75 
 VCI[4] |  1  0  0  1  1  1 >   12427.03 
 VCI[4] |  1  0  0  2  1  0 >   12598.08 
 VCI[4] |  0  1  0  0  0  3 >   12612.46 
 VCI[4] |  0  0  1  0  3  0 >   12647.09 
 VCI[4] |  0  1  0  0  3  0 >   12725.06 
 VCI[4] |  0  0  1  0  3  0 >   12746.33 
 VCI[4] |  0  1  0  0  2  1 >   12791.39 
 VCI[4] |  0  1  0  0  1  2 >   12794.20 
 VCI[4] |  0  0  1  0  1  2 >   12819.99 
 VCI[4] |  0  0  1  0  1  2 >   12825.15 
 VCI[4] |  1  0  0  1  2  0 >   12946.03 
 VCI[4] |  0  1  0  3  0  0 >   12978.83 
 VCI[4] |  0  0  1  3  0  0 >   12995.12 
 VCI[4] |  1  0  0  1  0  2 >   12996.23 
 VCI[4] |  0  1  0  1  2  0 >   13060.37 
 VCI[4] |  0  0  1  2  0  1 >   13103.02 
 VCI[4] |  0  1  0  1  1  1 >   13265.07 
 VCI[4] |  0  0  1  1  1  1 >   13268.95 
 VCI[4] |  0  1  0  2  1  0 >   13430.69 
 VCI[4] |  0  0  1  2  1  0 >   13511.37 
 VCI[4] |  0  0  1  1  2  0 >   13773.21 
 VCI[4] |  0  1  0  1  0  2 >   13802.09 
 VCI[4] |  0  1  0  1  2  0 >   13906.72 
 VCI[4] |  0  0  1  1  0  2 >   13924.36 
 VCI[4] |  0  0  0  0  0  4 >   15087.92 
 VCI[4] |  0  0  0  0  4  0 >   15111.33 
 VCI[4] |  0  0  0  0  1  3 >   15216.61 
 VCI[4] |  0  0  0  0  2  2 >   15279.39 
 VCI[4] |  0  0  0  0  3  1 >   15311.46 
 VCI[4] |  0  0  0  4  0  0 >   15613.55 
 VCI[4] |  0  0  0  3  1  0 >   15864.79 
 VCI[4] |  0  0  0  2  0  2 >   15904.01 
 VCI[4] |  0  0  0  1  1  2 >   16080.49 
 VCI[4] |  0  0  0  4  0  0 >   16241.64 
 VCI[4] |  0  0  0  1  2  1 >   16349.63 
 VCI[4] |  0  0  0  2  1  1 >   16638.44 
 VCI[4] |  0  0  0  2  2  0 >   16975.18 
 VCI[4] |  0  0  0  1  3  0 >   17594.79 
 VCI[4] |  0  0  0  1  0  3 >   17660.12 
 -----------------------------------------------------------
 VCI[4] construnction time:  CPU    0.61 s  wall    0.16 s
 -----------------------------------------------------------
 VCI time:                    CPU    0.74 s  wall    0.19 s
 ----------------------------------------------------------------
             Standard Nuclear Orientation (Angstroms)
    I     Atom           X                Y                Z
 ----------------------------------------------------------------
    1      N       0.0001312314     0.0001200546     0.1133949422
    2      H       0.9155118085     0.2105602264    -0.2648789753
    3      H      -0.2751535850    -0.8967930639    -0.2643001662
    4      H      -0.6412768434     0.6853924556    -0.2645854538
 ----------------------------------------------------------------
 Nuclear Repulsion Energy =          11.95804501 hartrees
 There are        5 alpha and        5 beta electrons

 = Finishing finite difference calculation for ANHAR =
 =====================================================
 =====================================================
 Requested basis set is def2-TZVP
 There are 23 shells and 49 basis functions
 **********************************************************************
 **                                                                  **
 **                       VIBRATIONAL ANALYSIS                       **
 **                       --------------------                       **
 **                                                                  **
 **        VIBRATIONAL FREQUENCIES (CM**-1) AND NORMAL MODES         **
 **     FORCE CONSTANTS (mDYN/ANGSTROM) AND REDUCED MASSES (AMU)     **
 **                  INFRARED INTENSITIES (KM/MOL)                   **
 **                                                                  **
 **********************************************************************
 

 Mode:                 1                      2                      3
 Frequency:      1015.46                1641.03                1661.61
 Force Cnst:      0.7174                 1.6925                 1.7333
 Red. Mass:       1.1808                 1.0667                 1.0655
 IR Active:          YES                    YES                    YES
 IR Intens:      173.789                 21.076                 20.941
 Raman Active:       YES                    YES                    YES
               X      Y      Z        X      Y      Z        X      Y      Z
 N          0.000 -0.000 -0.115    0.042 -0.053  0.001   -0.052 -0.041 -0.000
 H          0.203  0.055  0.536   -0.101  0.684  0.101   -0.200  0.287 -0.224
 H         -0.069 -0.198  0.535   -0.621  0.111  0.138    0.381 -0.242  0.205
 H         -0.140  0.149  0.532    0.144 -0.061 -0.256    0.547  0.528  0.021
 TransDip  -0.003  0.003  0.422   -0.091  0.116 -0.004    0.115  0.091  0.000

 Mode:                 4                      5                      6
 Frequency:      3474.62                3608.04                3619.18
 Force Cnst:      7.3034                 8.3573                 8.4145
 Red. Mass:       1.0267                 1.0896                 1.0903
 IR Active:          YES                    YES                    YES
 IR Intens:        0.543                  3.886                  4.230
 Raman Active:       YES                    YES                    YES
               X      Y      Z        X      Y      Z        X      Y      Z
 N         -0.000 -0.004  0.038   -0.069  0.039  0.001   -0.040 -0.069 -0.002
 H          0.545  0.126 -0.179    0.549  0.144 -0.222    0.481  0.096 -0.195
 H         -0.152 -0.490 -0.161   -0.075 -0.168 -0.071    0.222  0.730  0.298
 H         -0.393  0.419 -0.186    0.483 -0.523  0.277   -0.147  0.132 -0.078
 TransDip   0.004  0.000  0.023    0.056 -0.030 -0.001    0.034  0.056 -0.001

 ======================================================================
                     VIBRATIONAL ANHARMONIC ANALYSIS                   
                     -------------------------------                   
 WARNING! Low frequency modes less than  300 are treated as rotation
 No anharmonic shift applied, please see IGNORE_LOW_FREQ for more details.
 WARNING! THESE RESULTS ARE CALCULATED WTIHOUT Eta_ijk AND Eta_ijkl
                                                                       
 TOSH[ 1]   902.75    VPT2[ 1]   900.16
 TOSH[ 2]  1589.67    VPT2[ 2]  1588.43
 TOSH[ 3]  1603.34    VPT2[ 3]  1603.18
 TOSH[ 4]  3378.60    VPT2[ 4]  3334.37
 TOSH[ 5]  3423.85    VPT2[ 5]  3422.73
 TOSH[ 6]  3435.65    VPT2[ 6]  3425.09

 VCI[ 1]mode[ 1]=  1.00 quanta *  996.34
 VCI[ 1]mode[ 2]=  1.00 quanta * 1654.06
 VCI[ 1]mode[ 3]=  1.00 quanta * 1669.66
 VCI[ 1]mode[ 4]=  0.86 quanta * 3691.98
 VCI[ 1]mode[ 5]=  0.84 quanta * 3769.26
 VCI[ 1]mode[ 6]=  0.76 quanta * 3792.20

 VCI[ 2]mode[ 1]=  0.97 quanta *  921.56
 VCI[ 2]mode[ 2]=  0.99 quanta * 1592.94
 VCI[ 2]mode[ 3]=  0.99 quanta * 1607.17
 VCI[ 2]mode[ 4]=  0.82 quanta * 3392.93
 VCI[ 2]mode[ 5]=  0.81 quanta * 3497.54
 VCI[ 2]mode[ 6]=  0.78 quanta * 3508.42

 VCI[ 3]mode[ 1]=  0.96 quanta *  939.94
 VCI[ 3]mode[ 2]=  0.99 quanta * 1624.37
 VCI[ 3]mode[ 3]=  0.99 quanta * 1637.77
 VCI[ 3]mode[ 4]=  0.84 quanta * 3396.83
 VCI[ 3]mode[ 5]=  0.88 quanta * 3511.68
 VCI[ 3]mode[ 6]=  0.85 quanta * 3519.69

 VCI[ 4]mode[ 1]=  0.94 quanta *  863.95
 VCI[ 4]mode[ 2]=  0.98 quanta * 1585.46
 VCI[ 4]mode[ 3]=  0.98 quanta * 1599.22
 VCI[ 4]mode[ 4]=  0.79 quanta * 3337.67
 VCI[ 4]mode[ 5]=  0.87 quanta * 3457.83
 VCI[ 4]mode[ 6]=  0.85 quanta * 3465.57

 ======================================================================

 STANDARD THERMODYNAMIC QUANTITIES AT   298.15 K  AND     1.00 ATM

   This Molecule has  0 Imaginary Frequencies
   Zero point vibrational energy:       21.472 kcal/mol

   Atom    1 Element N  Has Mass   14.00307
   Atom    2 Element H  Has Mass    1.00783
   Atom    3 Element H  Has Mass    1.00783
   Atom    4 Element H  Has Mass    1.00783
   Molecular Mass:    17.026560 amu
   Principal axes and moments of inertia in amu*Bohr^2:
                             1           2           3
    Eigenvalues --        6.01339     6.03776     9.51382
          X               1.00000    -0.00001    -0.00006
          Y               0.00001     1.00000    -0.00006
          Z               0.00006     0.00006     1.00000
   Rotational Symmetry Number is   1
   The Molecule is an Asymmetric Top
   Translational Enthalpy:        0.889 kcal/mol
   Rotational Enthalpy:           0.889 kcal/mol
   Vibrational Enthalpy:         21.497 kcal/mol
   gas constant (RT):             0.592 kcal/mol
   Translational Entropy:        34.441  cal/mol.K
   Rotational Entropy:           13.610  cal/mol.K
   Vibrational Entropy:           0.100  cal/mol.K

   Total Enthalpy:               23.867 kcal/mol
   Total Entropy:                48.151  cal/mol.K

 ======================================================================

 STANDARD THERMODYNAMIC QUANTITIES FOR ANHARMONIC VIBRATION -- TOSH

   Zero point vibrational energy:       20.491 kcal/mol

   Vibrational Enthalpy:         20.529 kcal/mol
   Vibrational Entropy:           0.154  cal/mol.K

   Total Enthalpy:               22.899 kcal/mol
   Total Entropy:                48.205  cal/mol.K

 ======================================================================

 STANDARD THERMODYNAMIC QUANTITIES FOR ANHARMONIC VIBRATION -- VPT2

   Zero point vibrational energy:       20.406 kcal/mol

   Vibrational Enthalpy:         20.444 kcal/mol
   Vibrational Entropy:           0.155  cal/mol.K

   Total Enthalpy:               22.814 kcal/mol
   Total Entropy:                48.206  cal/mol.K

 ======================================================================

 STANDARD THERMODYNAMIC QUANTITIES FOR ANHARMONIC VIBRATION -- VCI 4

   Zero point vibrational energy:       20.457 kcal/mol

   Vibrational Enthalpy:         20.500 kcal/mol
   Vibrational Entropy:           0.177  cal/mol.K

   Total Enthalpy:               22.870 kcal/mol
   Total Entropy:                48.228  cal/mol.K

 ======================================================================
 
Archival summary:
1\1\gadi-cpu-clx-0263.gadi.nci.org.au\FREQ\ProcedureUnspecified\BasisUnspecified\13\pk8622\TueJun2312:51:132020TueJun2312:51:132020\0\\#,FREQ,ProcedureUnspecified,BasisUnspecified,\\0,1\N\H,1,1.01138\H,1,1.01187,2,106.771\H,1,1.01257,2,106.909,3,-114.279,0\\\@

 Total job time:  261.40s(wall), 1019.30s(cpu) 
 Tue Jun 23 12:51:13 2020

        *************************************************************
        *                                                           *
        *  Thank you very much for using Q-Chem.  Have a nice day.  *
        *                                                           *
        *************************************************************


