                  Welcome to Q-Chem
     A Quantum Leap Into The Future Of Chemistry


 Q-Chem 5.2 (devel), Q-Chem, Inc., Pleasanton, CA (2019)

 Yihan Shao,  Zhengting Gan,  E. Epifanovsky,  A. T. B. Gilbert,  M. Wormit,  
 J. Kussmann,  A. W. Lange,  A. Behn,  Jia Deng,  Xintian Feng,  D. Ghosh,  
 M. Goldey,  P. R. Horn,  L. D. Jacobson,  I. Kaliman,  T. Kus,  A. Landau,  
 Jie Liu,  E. I. Proynov,  R. M. Richard,  R. P. Steele,  E. J. Sundstrom,  
 H. L. Woodcock III,  P. M. Zimmerman,  D. Zuev,  B. Albrecht,  E. Alguire,  
 S. A. Baeppler,  D. Barton,  Z. Benda,  Y. A. Bernard,  E. J. Berquist,  
 K. B. Bravaya,  H. Burton,  D. Casanova,  Chun-Min Chang,  Yunqing Chen,  
 A. Chien,  K. D. Closser,  M. P. Coons,  S. Coriani,  S. Dasgupta,  
 A. L. Dempwolff,  M. Diedenhofen,  Hainam Do,  R. G. Edgar,  Po-Tung Fang,  
 S. Faraji,  S. Fatehi,  Qingguo Feng,  K. D. Fenk,  J. Fosso-Tande,  
 J. Gayvert,  Qinghui Ge,  A. Ghysels,  G. Gidofalvi,  J. Gomes,  
 J. Gonthier,  A. Gunina,  D. Hait,  M. W. D. Hanson-Heine,  
 P. H. P. Harbach,  A. W. Hauser,  M. F. Herbst,  J. E. Herr,  
 E. G. Hohenstein,  Z. C. Holden,  Kerwin Hui,  B. C. Huynh,  T.-C. Jagau,  
 Hyunjun Ji,  B. Kaduk,  K. Khistyaev,  Jaehoon Kim,  P. Klunzinger,  K. Koh,  
 D. Kosenkov,  L. Koulias,  T. Kowalczyk,  C. M. Krauter,  A. Kunitsa,  
 Ka Un Lao,  A. Laurent,  K. V. Lawler,  Joonho Lee,  D. Lefrancois,  
 S. Lehtola,  D. S. Levine,  Yi-Pei Li,  You-Sheng Lin,  Fenglai Liu,  
 E. Livshits,  A. Luenser,  P. Manohar,  E. Mansoor,  S. F. Manzer,  
 Shan-Ping Mao,  Yuezhi Mao,  N. Mardirossian,  A. V. Marenich,  
 T. Markovich,  L. A. Martinez-Martinez,  S. A. Maurer,  N. J. Mayhall,  
 S. C. McKenzie,  J.-M. Mewes,  P. Morgante,  A. F. Morrison,  
 J. W. Mullinax,  K. Nanda,  T. S. Nguyen-Beck,  R. Olivares-Amaya,  
 J. A. Parkhill,  Zheng Pei,  T. M. Perrine,  F. Plasser,  P. Pokhilko,  
 S. Prager,  A. Prociuk,  E. Ramos,  D. R. Rehn,  F. Rob,  M. Scheurer,  
 M. Schneider,  N. Sergueev,  S. M. Sharada,  S. Sharma,  D. W. Small,  
 T. Stauch,  T. Stein,  Yu-Chuan Su,  A. J. W. Thom,  A. Tkatchenko,  
 T. Tsuchimochi,  N. M. Tubman,  L. Vogt,  M. L. Vidal,  O. Vydrov,  
 M. A. Watson,  J. Wenzel,  M. de Wergifosse,  T. A. Wesolowski,  A. White,  
 J. Witte,  A. Yamada,  Jun Yang,  K. Yao,  S. Yeganeh,  S. R. Yost,  
 Zhi-Qiang You,  A. Zech,  Igor Ying Zhang,  Xing Zhang,  Yan Zhao,  
 Ying Zhu,  B. R. Brooks,  G. K. L. Chan,  C. J. Cramer,  M. S. Gordon,  
 W. J. Hehre,  A. Klamt,  M. W. Schmidt,  C. D. Sherrill,  D. G. Truhlar,  
 A. Aspuru-Guzik,  R. Baer,  A. T. Bell,  N. A. Besley,  Jeng-Da Chai,  
 A. E. DePrince, III,  R. A. DiStasio Jr.,  A. Dreuw,  B. D. Dunietz,  
 T. R. Furlani,  Chao-Ping Hsu,  Yousung Jung,  Jing Kong,  D. S. Lambrecht,  
 WanZhen Liang,  C. Ochsenfeld,  V. A. Rassolov,  L. V. Slipchenko,  
 J. E. Subotnik,  T. Van Voorhis,  J. M. Herbert,  A. I. Krylov,  
 P. M. W. Gill,  M. Head-Gordon

 Contributors to earlier versions of Q-Chem not listed above: 
 R. D. Adamson,  B. Austin,  J. Baker,  G. J. O. Beran,  K. Brandhorst,  
 S. T. Brown,  E. F. C. Byrd,  A. K. Chakraborty,  C.-L. Cheng,  
 Siu Hung Chien,  D. M. Chipman,  D. L. Crittenden,  H. Dachsel,  
 R. J. Doerksen,  A. D. Dutoi,  L. Fusti-Molnar,  W. A. Goddard III,  
 A. Golubeva-Zadorozhnaya,  S. R. Gwaltney,  G. Hawkins,  A. Heyden,  
 S. Hirata,  G. Kedziora,  F. J. Keil,  C. Kelley,  Jihan Kim,  R. A. King,  
 R. Z. Khaliullin,  P. P. Korambath,  W. Kurlancheek,  A. M. Lee,  M. S. Lee,  
 S. V. Levchenko,  Ching Yeh Lin,  D. Liotard,  R. C. Lochan,  I. Lotan,  
 P. E. Maslen,  N. Nair,  D. P. O'Neill,  D. Neuhauser,  E. Neuscamman,  
 C. M. Oana,  R. Olson,  B. Peters,  R. Peverati,  P. A. Pieniazek,  
 Y. M. Rhee,  J. Ritchie,  M. A. Rohrdanz,  E. Rosta,  N. J. Russ,  
 H. F. Schaefer III,  N. E. Schultz,  N. Shenvi,  A. C. Simmonett,  A. Sodt,  
 D. Stuck,  K. S. Thanthiriwatte,  V. Vanovschi,  Tao Wang,  A. Warshel,  
 C. F. Williams,  Q. Wu,  X. Xu,  W. Zhang

 Please cite Q-Chem as follows:
 Y. Shao et al., Mol. Phys. 113, 184-215 (2015)
 DOI: 10.1080/00268976.2014.952696

 Q-Chem 5.2.0 for Intel X86 EM64T Linux

 Parts of Q-Chem use Armadillo 8.300.2 (Tropical Shenanigans).
 http://arma.sourceforge.net/

 Q-Chem begins on Tue Jun 23 13:57:31 2020  

Host: gadi-cpu-clx-0263.gadi.nci.org.au
0

     Scratch files written to /jobfs/7626483.gadi-pbs/qchem66650//
NAlpha2: 18
NElect   18
Mult     1

Checking the input file for inconsistencies... 	...done.

--------------------------------------------------------------
User input:
--------------------------------------------------------------
$comment
	QCHEM - fluoromethane
	Geometry optimization
	Anharmonic frequency analysis
$end

$molecule
0 1
C         -0.48347        1.09831       -0.05476
H          0.60830        1.10236       -0.04160
F         -0.93570        1.47471        1.16770
H         -0.85389        0.09448       -0.27218
H         -0.85389        1.80599       -0.79916

$end

$rem
	JOBTYPE	OPT
	METHOD	M06
	BASIS	def2-TZVP
	SCF_CONVERGENCE	7
$end

--------------------------------------------------------------
 ----------------------------------------------------------------
             Standard Nuclear Orientation (Angstroms)
    I     Atom           X                Y                Z
 ----------------------------------------------------------------
    1      C       0.6198530857     0.0000011270    -0.0000006058
    2      H       0.9707949421     1.0303421167    -0.0859574529
    3      F      -0.7368330919     0.0000000359     0.0000001340
    4      H       0.9707927571    -0.4407323113     0.9352814292
    5      H       0.9707916139    -0.5896168910    -0.8493215470
 ----------------------------------------------------------------
 Molecular Point Group                 C1    NOp =  1
 Largest Abelian Subgroup              C1    NOp =  1
 Nuclear Repulsion Energy =          37.83043700 hartrees
 There are        9 alpha and        9 beta electrons
 Requested basis set is def2-TZVP
 There are 34 shells and 80 basis functions

 Total QAlloc Memory Limit   2000 MB
 Mega-Array Size       188 MB
 MEM_STATIC part       192 MB
 A cutoff of  1.0D-10 yielded    593 shell pairs
 There are      3347 function pairs (      4270 Cartesian)
 Smallest overlap matrix eigenvalue = 1.99E-03

 Scale SEOQF with 1.000000e+00/1.000000e+00/1.000000e+00

 Standard Electronic Orientation quadrupole field applied
 Nucleus-field energy     =     0.0000000030 hartrees
 Guess from superposition of atomic densities
 Warning:  Energy on first SCF cycle will be non-variational
 SAD guess density has 18.000000 electrons

 -----------------------------------------------------------------------
  General SCF calculation program by
  Eric Jon Sundstrom, Paul Horn, Yuezhi Mao, Dmitri Zuev, Alec White,
  David Stuck, Shaama M.S., Shane Yost, Joonho Lee, David Small,
  Daniel Levine, Susi Lehtola, Hugh Burton, Evgeny Epifanovsky
 -----------------------------------------------------------------------
 Exchange:     0.2700 Hartree-Fock + 1.0000 M06
 Correlation:  1.0000 M06
 Using SG-3 standard quadrature grid
 using 4 threads for integral computing
 -------------------------------------------------------
 OpenMP Integral computing Module                
 Release: version 2.0, May 2017, Q-Chem Inc. Pleasanton 
 -------------------------------------------------------
 A restricted SCF calculation will be
 performed using DIIS
 SCF converges when DIIS error is below 1.0e-07
 ---------------------------------------
  Cycle       Energy         DIIS error
 ---------------------------------------
    1    -139.8365096570      5.38e-02  
    2    -139.7037942475      6.57e-03  
    3    -139.7014718502      7.52e-03  
    4    -139.7293794582      8.90e-04  
    5    -139.7297166600      3.80e-04  
    6    -139.7297991888      6.06e-05  
    7    -139.7298014375      4.04e-06  
    8    -139.7298014484      6.23e-07  
    9    -139.7298014485      1.17e-07  
   10    -139.7298014489      8.66e-09  Convergence criterion met
 ---------------------------------------
 SCF time:   CPU 12.69s  wall 3.00s 
 SCF   energy in the final basis set =     -139.7298014489
 Total energy in the final basis set =     -139.7298014489
 
 --------------------------------------------------------------
 
                    Orbital Energies (a.u.)
 --------------------------------------------------------------
 
 Alpha MOs
 -- Occupied --
-24.7550 -10.3081  -1.2370  -0.7126  -0.5138  -0.5031  -0.5030  -0.3608
 -0.3605
 -- Virtual --
  0.0485   0.0833   0.1046   0.1046   0.2075   0.2077   0.2980   0.3234
  0.4070   0.4073   0.4294   0.5462   0.5920   0.5920   0.7332   0.7333
  0.8676   0.8676   0.9123   1.0041   1.3824   1.4077   1.4078   1.4774
  1.6143   1.6777   1.6788   1.8520   1.8565   1.8693   2.2006   2.2051
  2.2336   2.2374   2.2388   2.3861   2.4603   2.4638   2.7115   2.7125
  2.8196   2.9077   2.9079   3.2061   3.2067   3.2618   3.2783   3.3887
  3.3938   3.5262   3.6946   3.6949   3.8626   3.9741   3.9831   4.1106
  5.0385   6.9206   6.9223   7.0159   7.0160   7.2853   7.2854   7.3430
  8.4551   8.4554   8.8539   8.8540   9.0748  22.2308  56.9500
 --------------------------------------------------------------
 
          Ground-State Mulliken Net Atomic Charges

     Atom                 Charge (a.u.)
  ----------------------------------------
      1 C                     0.042254
      2 H                     0.078221
      3 F                    -0.275327
      4 H                     0.077628
      5 H                     0.077224
  ----------------------------------------
  Sum of atomic charges =     0.000000

 -----------------------------------------------------------------
                    Cartesian Multipole Moments
 -----------------------------------------------------------------
    Charge (ESU x 10^10)
                -0.0000
    Dipole Moment (Debye)
         X       1.6763      Y      -0.0064      Z      -0.0015
       Tot       1.6763
    Quadrupole Moments (Debye-Ang)
        XX     -12.4934     XY      -0.0060     YY     -11.8368
        XZ      -0.0013     YZ       0.0003     ZZ     -11.8364
    Octopole Moments (Debye-Ang^2)
       XXX      -4.6216    XXY      -0.0061    XYY      -1.3283
       YYY       0.5294    XXZ      -0.0013    XYZ       0.0000
       YYZ      -0.1399    XZZ      -1.3289    YZZ      -0.5487
       ZZZ       0.1350
    Hexadecapole Moments (Debye-Ang^3)
      XXXX     -49.9332   XXXY      -0.0089   XXYY     -11.1313
      XYYY       0.5733   YYYY     -17.1632   XXXZ      -0.0019
      XXYZ       0.0001   XYYZ      -0.1509   YYYZ       0.0022
      XXZZ     -11.1316   XYZZ      -0.5919   YYZZ      -5.7138
      XZZZ       0.1462   YZZZ       0.0022   ZZZZ     -17.1494
 -----------------------------------------------------------------
 Calculating analytic gradient of the SCF energy
 Gradient of SCF Energy
            1           2           3           4           5
    1   0.0001539  -0.0036142   0.0096059  -0.0032103  -0.0029353
    2   0.0003066  -0.0002852   0.0000357   0.0001574  -0.0002145
    3   0.0001009   0.0001164   0.0000253   0.0004172  -0.0006598
 Max gradient component =       9.606E-03
 RMS gradient           =       2.889E-03
 Gradient time:  CPU 3.39 s  wall 0.86 s
 Geometry Optimization Parameters
   NAtoms,    NIC,     NZ,  NCons,   NDum,   NFix, NCnnct, MaxDiis
        5      20       0       0       0       0       0       0


** GEOMETRY OPTIMIZATION IN DELOCALIZED INTERNAL COORDINATES **
   Searching for a Minimum

   Optimization Cycle:   1

                       Coordinates (Angstroms)
     ATOM                X               Y               Z
      1  C         0.6198530857    0.0000011270   -0.0000006058
      2  H         0.9707949421    1.0303421167   -0.0859574529
      3  F        -0.7368330919    0.0000000359    0.0000001340
      4  H         0.9707927571   -0.4407323113    0.9352814292
      5  H         0.9707916139   -0.5896168910   -0.8493215470
   Point Group: c1    Number of degrees of freedom:     9


   Energy is   -139.729801449


 Attempting to generate delocalized internal coordinates
 Initial Hessian constructed with Jon Baker's OPTIMIZE code

  9 Hessian modes will be used to form the next step
  Hessian Eigenvalues:
     0.160000    0.160000    0.160000    0.160000    0.160000    0.345986
     0.345988    0.345989    0.536230

 Minimum search - taking simple RFO step
 Searching for Lamda that Minimizes Along All modes
 Value Taken    Lamda =  -0.00058836
 Step Taken.  Stepsize is  0.053734

                             Maximum     Tolerance    Cnvgd?
         Gradient           0.011104      0.000300      NO
         Displacement       0.047985      0.001200      NO
         Energy change     *********      0.000001      NO


 New Cartesian Coordinates Obtained by Inverse Iteration

 Displacement from previous Coordinates is:  0.059928
 ----------------------------------------------------------------
             Standard Nuclear Orientation (Angstroms)
    I     Atom           X                Y                Z
 ----------------------------------------------------------------
    1      C       0.6087597821     0.0006994018     0.0002139328
    2      H       0.9822721404     1.0254170484    -0.0859236987
    3      F      -0.7573943201    -0.0010157803    -0.0003860522
    4      H       0.9812755482    -0.4390317545     0.9289142677
    5      H       0.9804861562    -0.5860748381    -0.8428164922
 ----------------------------------------------------------------
 Molecular Point Group                 C1    NOp =  1
 Largest Abelian Subgroup              C1    NOp =  1
 Nuclear Repulsion Energy =          37.59648243 hartrees
 There are        9 alpha and        9 beta electrons
 Applying Cartesian multipole field
    Component          Value
    ---------          -----
     (2,0,0)        1.00000E-10
     (0,2,0)        2.00000E-10
     (0,0,2)       -3.00000E-10
 Nucleus-field energy     =     0.0000000031 hartrees
 Requested basis set is def2-TZVP
 There are 34 shells and 80 basis functions
 A cutoff of  1.0D-10 yielded    593 shell pairs
 There are      3347 function pairs (      4270 Cartesian)
 Smallest overlap matrix eigenvalue = 1.97E-03
 Guess MOs from SCF MO coefficient file

 -----------------------------------------------------------------------
  General SCF calculation program by
  Eric Jon Sundstrom, Paul Horn, Yuezhi Mao, Dmitri Zuev, Alec White,
  David Stuck, Shaama M.S., Shane Yost, Joonho Lee, David Small,
  Daniel Levine, Susi Lehtola, Hugh Burton, Evgeny Epifanovsky
 -----------------------------------------------------------------------
 Exchange:     0.2700 Hartree-Fock + 1.0000 M06
 Correlation:  1.0000 M06
 Using SG-3 standard quadrature grid
 using 4 threads for integral computing
 -------------------------------------------------------
 OpenMP Integral computing Module                
 Release: version 2.0, May 2017, Q-Chem Inc. Pleasanton 
 -------------------------------------------------------
 A restricted SCF calculation will be
 performed using DIIS
 SCF converges when DIIS error is below 1.0e-07
 ---------------------------------------
  Cycle       Energy         DIIS error
 ---------------------------------------
    1    -139.7299714937      3.35e-04  
    2    -139.7300327464      8.21e-05  
    3    -139.7300323092      9.08e-05  
    4    -139.7300365570      1.02e-05  
    5    -139.7300365965      3.77e-06  
    6    -139.7300366050      5.21e-07  
    7    -139.7300366048      4.12e-08  Convergence criterion met
 ---------------------------------------
 SCF time:   CPU 8.87s  wall 2.00s 
 SCF   energy in the final basis set =     -139.7300366048
 Total energy in the final basis set =     -139.7300366048
 
 --------------------------------------------------------------
 
                    Orbital Energies (a.u.)
 --------------------------------------------------------------
 
 Alpha MOs
 -- Occupied --
-24.7563 -10.3096  -1.2340  -0.7136  -0.5148  -0.5000  -0.4998  -0.3619
 -0.3619
 -- Virtual --
  0.0481   0.0805   0.1046   0.1046   0.2088   0.2090   0.2960   0.3216
  0.4051   0.4055   0.4309   0.5448   0.5903   0.5905   0.7304   0.7307
  0.8705   0.8707   0.9098   1.0007   1.3861   1.4024   1.4033   1.4836
  1.6271   1.6710   1.6728   1.8473   1.8520   1.8746   2.2121   2.2156
  2.2249   2.2289   2.2328   2.3908   2.4638   2.4648   2.6920   2.6943
  2.8328   2.9049   2.9052   3.2015   3.2023   3.2398   3.2566   3.4016
  3.4077   3.4977   3.6945   3.6949   3.8549   3.9695   3.9812   4.1006
  5.0442   6.9207   6.9224   7.0100   7.0104   7.2726   7.2728   7.3306
  8.4497   8.4504   8.8397   8.8402   9.0758  22.2039  56.9377
 --------------------------------------------------------------
 
          Ground-State Mulliken Net Atomic Charges

     Atom                 Charge (a.u.)
  ----------------------------------------
      1 C                     0.036996
      2 H                     0.080180
      3 F                    -0.275836
      4 H                     0.079526
      5 H                     0.079134
  ----------------------------------------
  Sum of atomic charges =     0.000000

 -----------------------------------------------------------------
                    Cartesian Multipole Moments
 -----------------------------------------------------------------
    Charge (ESU x 10^10)
                -0.0000
    Dipole Moment (Debye)
         X       1.7262      Y      -0.0053      Z      -0.0010
       Tot       1.7262
    Quadrupole Moments (Debye-Ang)
        XX     -12.4492     XY      -0.0061     YY     -11.8698
        XZ      -0.0012     YZ      -0.0019     ZZ     -11.8774
    Octopole Moments (Debye-Ang^2)
       XXX      -4.0504    XXY      -0.0044    XYY      -1.1693
       YYY       0.5144    XXZ      -0.0002    XYZ      -0.0029
       YYZ      -0.1354    XZZ      -1.1800    YZZ      -0.5324
       ZZZ       0.1322
    Hexadecapole Moments (Debye-Ang^3)
      XXXX     -50.4688   XXXY      -0.0294   XXYY     -11.1955
      XYYY       0.5532   YYYY     -17.1766   XXXZ      -0.0089
      XXYZ      -0.0020   XYYZ      -0.1542   YYYZ       0.0047
      XXZZ     -11.2027   XYZZ      -0.6019   YYZZ      -5.7152
      XZZZ       0.1388   YZZZ       0.0047   ZZZZ     -17.1459
 -----------------------------------------------------------------
 Calculating analytic gradient of the SCF energy
 Gradient of SCF Energy
            1           2           3           4           5
    1   0.0000159   0.0005469  -0.0018116   0.0006285   0.0006204
    2   0.0000274  -0.0000137  -0.0002119   0.0000910   0.0001072
    3   0.0000374  -0.0000112  -0.0000723  -0.0001122   0.0001583
 Max gradient component =       1.812E-03
 RMS gradient           =       5.460E-04
 Gradient time:  CPU 3.36 s  wall 0.85 s
 Geometry Optimization Parameters
   NAtoms,    NIC,     NZ,  NCons,   NDum,   NFix, NCnnct, MaxDiis
        5      20       0       0       0       0       0       0

 Cartesian Hessian Update
 Hessian updated using BFGS update


** GEOMETRY OPTIMIZATION IN DELOCALIZED INTERNAL COORDINATES **
   Searching for a Minimum

   Optimization Cycle:   2

                       Coordinates (Angstroms)
     ATOM                X               Y               Z
      1  C         0.6087597821    0.0006994018    0.0002139328
      2  H         0.9822721404    1.0254170484   -0.0859236987
      3  F        -0.7573943201   -0.0010157803   -0.0003860522
      4  H         0.9812755482   -0.4390317545    0.9289142677
      5  H         0.9804861562   -0.5860748381   -0.8428164922
   Point Group: c1    Number of degrees of freedom:     9


   Energy is   -139.730036605

 Hessian updated using BFGS update

  6 Hessian modes will be used to form the next step
  Hessian Eigenvalues:
     0.159940    0.179808    0.345987    0.345988    0.346212    0.567716

 Minimum search - taking simple RFO step
 Searching for Lamda that Minimizes Along All modes
 Value Taken    Lamda =  -0.00001734
 Step Taken.  Stepsize is  0.008470

                             Maximum     Tolerance    Cnvgd?
         Gradient           0.002115      0.000300      NO
         Displacement       0.007643      0.001200      NO
         Energy change     -0.000235      0.000001      NO


 New Cartesian Coordinates Obtained by Inverse Iteration

 Displacement from previous Coordinates is:  0.009468
 ----------------------------------------------------------------
             Standard Nuclear Orientation (Angstroms)
    I     Atom           X                Y                Z
 ----------------------------------------------------------------
    1      C       0.6104661329     0.0005373435     0.0001199699
    2      H       0.9803712058     1.0263332566    -0.0859836907
    3      F      -0.7541845161    -0.0007327187    -0.0002144800
    4      H       0.9796013197    -0.4394250475     0.9299339236
    5      H       0.9791451645    -0.5867187565    -0.8438537654
 ----------------------------------------------------------------
 Molecular Point Group                 C1    NOp =  1
 Largest Abelian Subgroup              C1    NOp =  1
 Nuclear Repulsion Energy =          37.63229990 hartrees
 There are        9 alpha and        9 beta electrons
 Applying Cartesian multipole field
    Component          Value
    ---------          -----
     (2,0,0)        1.00000E-10
     (0,2,0)        2.00000E-10
     (0,0,2)       -3.00000E-10
 Nucleus-field energy     =     0.0000000031 hartrees
 Requested basis set is def2-TZVP
 There are 34 shells and 80 basis functions
 A cutoff of  1.0D-10 yielded    593 shell pairs
 There are      3347 function pairs (      4270 Cartesian)
 Smallest overlap matrix eigenvalue = 1.98E-03
 Guess MOs from SCF MO coefficient file

 -----------------------------------------------------------------------
  General SCF calculation program by
  Eric Jon Sundstrom, Paul Horn, Yuezhi Mao, Dmitri Zuev, Alec White,
  David Stuck, Shaama M.S., Shane Yost, Joonho Lee, David Small,
  Daniel Levine, Susi Lehtola, Hugh Burton, Evgeny Epifanovsky
 -----------------------------------------------------------------------
 Exchange:     0.2700 Hartree-Fock + 1.0000 M06
 Correlation:  1.0000 M06
 Using SG-3 standard quadrature grid
 using 4 threads for integral computing
 -------------------------------------------------------
 OpenMP Integral computing Module                
 Release: version 2.0, May 2017, Q-Chem Inc. Pleasanton 
 -------------------------------------------------------
 A restricted SCF calculation will be
 performed using DIIS
 SCF converges when DIIS error is below 1.0e-07
 ---------------------------------------
  Cycle       Energy         DIIS error
 ---------------------------------------
    1    -139.7300439199      5.24e-05  
    2    -139.7300454527      1.24e-05  
    3    -139.7300454438      1.36e-05  
    4    -139.7300455393      1.64e-06  
    5    -139.7300455403      5.87e-07  
    6    -139.7300455403      8.62e-08  Convergence criterion met
 ---------------------------------------
 SCF time:   CPU 7.60s  wall 2.00s 
 SCF   energy in the final basis set =     -139.7300455403
 Total energy in the final basis set =     -139.7300455403
 
 --------------------------------------------------------------
 
                    Orbital Energies (a.u.)
 --------------------------------------------------------------
 
 Alpha MOs
 -- Occupied --
-24.7561 -10.3094  -1.2345  -0.7134  -0.5147  -0.5004  -0.5003  -0.3617
 -0.3617
 -- Virtual --
  0.0482   0.0809   0.1046   0.1046   0.2087   0.2088   0.2964   0.3218
  0.4053   0.4058   0.4306   0.5450   0.5906   0.5908   0.7308   0.7311
  0.8701   0.8702   0.9102   1.0013   1.3856   1.4032   1.4040   1.4825
  1.6250   1.6719   1.6737   1.8480   1.8527   1.8736   2.2108   2.2149
  2.2262   2.2294   2.2333   2.3899   2.4631   2.4643   2.6952   2.6971
  2.8305   2.9053   2.9056   3.2022   3.2029   3.2433   3.2599   3.3996
  3.4057   3.5022   3.6943   3.6948   3.8562   3.9700   3.9814   4.1022
  5.0433   6.9206   6.9224   7.0109   7.0113   7.2746   7.2748   7.3325
  8.4506   8.4512   8.8419   8.8423   9.0756  22.2079  56.9396
 --------------------------------------------------------------
 
          Ground-State Mulliken Net Atomic Charges

     Atom                 Charge (a.u.)
  ----------------------------------------
      1 C                     0.037828
      2 H                     0.079870
      3 F                    -0.275747
      4 H                     0.079221
      5 H                     0.078828
  ----------------------------------------
  Sum of atomic charges =     0.000000

 -----------------------------------------------------------------
                    Cartesian Multipole Moments
 -----------------------------------------------------------------
    Charge (ESU x 10^10)
                -0.0000
    Dipole Moment (Debye)
         X       1.7183      Y      -0.0058      Z      -0.0013
       Tot       1.7183
    Quadrupole Moments (Debye-Ang)
        XX     -12.4564     XY      -0.0063     YY     -11.8645
        XZ      -0.0014     YZ      -0.0016     ZZ     -11.8712
    Octopole Moments (Debye-Ang^2)
       XXX      -4.1405    XXY      -0.0056    XYY      -1.1939
       YYY       0.5159    XXZ      -0.0010    XYZ      -0.0023
       YYZ      -0.1363    XZZ      -1.2032    YZZ      -0.5355
       ZZZ       0.1320
    Hexadecapole Moments (Debye-Ang^3)
      XXXX     -50.3843   XXXY      -0.0252   XXYY     -11.1853
      XYYY       0.5587   YYYY     -17.1766   XXXZ      -0.0066
      XXYZ      -0.0014   XYYZ      -0.1531   YYYZ       0.0045
      XXZZ     -11.1911   XYZZ      -0.5999   YYZZ      -5.7155
      XZZZ       0.1420   YZZZ       0.0044   ZZZZ     -17.1475
 -----------------------------------------------------------------
 Calculating analytic gradient of the SCF energy
 Gradient of SCF Energy
            1           2           3           4           5
    1   0.0000177  -0.0000982  -0.0000669   0.0000381   0.0001092
    2  -0.0000051   0.0000435  -0.0001428   0.0000673   0.0000372
    3  -0.0000071  -0.0000010  -0.0000289   0.0000167   0.0000203
 Max gradient component =       1.428E-04
 RMS gradient           =       6.197E-05
 Gradient time:  CPU 3.33 s  wall 0.85 s
 Geometry Optimization Parameters
   NAtoms,    NIC,     NZ,  NCons,   NDum,   NFix, NCnnct, MaxDiis
        5      20       0       0       0       0       0       0

 Cartesian Hessian Update
 Hessian updated using BFGS update


** GEOMETRY OPTIMIZATION IN DELOCALIZED INTERNAL COORDINATES **
   Searching for a Minimum

   Optimization Cycle:   3

                       Coordinates (Angstroms)
     ATOM                X               Y               Z
      1  C         0.6104661329    0.0005373435    0.0001199699
      2  H         0.9803712058    1.0263332566   -0.0859836907
      3  F        -0.7541845161   -0.0007327187   -0.0002144800
      4  H         0.9796013197   -0.4394250475    0.9299339236
      5  H         0.9791451645   -0.5867187565   -0.8438537654
   Point Group: c1    Number of degrees of freedom:     9


   Energy is   -139.730045540

 Hessian updated using BFGS update

  7 Hessian modes will be used to form the next step
  Hessian Eigenvalues:
     0.159812    0.159969    0.177615    0.345977    0.345987    0.346215
     0.558629

 Minimum search - taking simple RFO step
 Searching for Lamda that Minimizes Along All modes
 Value Taken    Lamda =   0.00000000
 Step Taken.  Stepsize is  0.000275

                             Maximum     Tolerance    Cnvgd?
         Gradient           0.000067      0.000300     YES
         Displacement       0.000231      0.001200     YES
         Energy change     -0.000009      0.000001      NO


                       Distance Matrix (Angstroms)
             C (  1)   H (  2)   F (  3)   H (  4)
   H (  2)  1.093847
   F (  3)  1.364651  2.017648
   H (  4)  1.092878  1.783406  2.015847
   H (  5)  1.092285  1.782219  2.014830  1.779893
 
 Final energy is   -139.730045540312     


 ******************************
 **  OPTIMIZATION CONVERGED  **
 ******************************

                       Coordinates (Angstroms)
     ATOM                X               Y               Z
      1  C         0.6104661329    0.0005373435    0.0001199699
      2  H         0.9803712058    1.0263332566   -0.0859836907
      3  F        -0.7541845161   -0.0007327187   -0.0002144800
      4  H         0.9796013197   -0.4394250475    0.9299339236
      5  H         0.9791451645   -0.5867187565   -0.8438537654

Z-matrix Print:
$molecule
0 1
C 
H  1 1.092285
H  1 1.092878 2 109.082965
H  1 1.093847 2 109.221948 3 119.389044 0
F  1 1.364651 2 109.684485 3 -120.209443 0
$end

 
 --------------------------------------------------------------
 
                    Orbital Energies (a.u.)
 --------------------------------------------------------------
 
 Alpha MOs
 -- Occupied --
-24.7561 -10.3094  -1.2345  -0.7134  -0.5147  -0.5004  -0.5003  -0.3617
 -0.3617
 -- Virtual --
  0.0482   0.0809   0.1046   0.1046   0.2087   0.2088   0.2964   0.3218
  0.4053   0.4058   0.4306   0.5450   0.5906   0.5908   0.7308   0.7311
  0.8701   0.8702   0.9102   1.0013   1.3856   1.4032   1.4040   1.4825
  1.6250   1.6719   1.6737   1.8480   1.8527   1.8736   2.2108   2.2149
  2.2262   2.2294   2.2333   2.3899   2.4631   2.4643   2.6952   2.6971
  2.8305   2.9053   2.9056   3.2022   3.2029   3.2433   3.2599   3.3996
  3.4057   3.5022   3.6943   3.6948   3.8562   3.9700   3.9814   4.1022
  5.0433   6.9206   6.9224   7.0109   7.0113   7.2746   7.2748   7.3325
  8.4506   8.4512   8.8419   8.8423   9.0756  22.2079  56.9396
 --------------------------------------------------------------
 
          Ground-State Mulliken Net Atomic Charges

     Atom                 Charge (a.u.)
  ----------------------------------------
      1 C                     0.037828
      2 H                     0.079870
      3 F                    -0.275747
      4 H                     0.079221
      5 H                     0.078828
  ----------------------------------------
  Sum of atomic charges =     0.000000

 -----------------------------------------------------------------
                    Cartesian Multipole Moments
 -----------------------------------------------------------------
    Charge (ESU x 10^10)
                -0.0000
    Dipole Moment (Debye)
         X       1.7183      Y      -0.0058      Z      -0.0013
       Tot       1.7183
    Quadrupole Moments (Debye-Ang)
        XX     -12.4564     XY      -0.0063     YY     -11.8645
        XZ      -0.0014     YZ      -0.0016     ZZ     -11.8712
    Octopole Moments (Debye-Ang^2)
       XXX      -4.1405    XXY      -0.0056    XYY      -1.1939
       YYY       0.5159    XXZ      -0.0010    XYZ      -0.0023
       YYZ      -0.1363    XZZ      -1.2032    YZZ      -0.5355
       ZZZ       0.1320
    Hexadecapole Moments (Debye-Ang^3)
      XXXX     -50.3843   XXXY      -0.0252   XXYY     -11.1853
      XYYY       0.5587   YYYY     -17.1766   XXXZ      -0.0066
      XXYZ      -0.0014   XYYZ      -0.1531   YYYZ       0.0045
      XXZZ     -11.1911   XYZZ      -0.5999   YYZZ      -5.7155
      XZZZ       0.1420   YZZZ       0.0044   ZZZZ     -17.1475
 -----------------------------------------------------------------
Archival summary:
1\1\gadi-cpu-clx-0263.gadi.nci.org.au\OPT\ProcedureUnspecified\BasisUnspecified\113\pk8622\TueJun2313:57:412020TueJun2313:57:412020\0\\#,OPT,ProcedureUnspecified,BasisUnspecified,\\0,1\C\H,1,1.09228\H,1,1.09288,2,109.083\H,1,1.09385,2,109.222,3,119.389,0\F,1,1.36465,2,109.684,3,-120.209,0\\\@

 Total job time:  10.29s(wall), 40.39s(cpu) 
 Tue Jun 23 13:57:41 2020

        *************************************************************
        *                                                           *
        *  Thank you very much for using Q-Chem.  Have a nice day.  *
        *                                                           *
        *************************************************************


 
User input: 2 of 2 
 
                  Welcome to Q-Chem
     A Quantum Leap Into The Future Of Chemistry


 Q-Chem 5.2 (devel), Q-Chem, Inc., Pleasanton, CA (2019)

 Yihan Shao,  Zhengting Gan,  E. Epifanovsky,  A. T. B. Gilbert,  M. Wormit,  
 J. Kussmann,  A. W. Lange,  A. Behn,  Jia Deng,  Xintian Feng,  D. Ghosh,  
 M. Goldey,  P. R. Horn,  L. D. Jacobson,  I. Kaliman,  T. Kus,  A. Landau,  
 Jie Liu,  E. I. Proynov,  R. M. Richard,  R. P. Steele,  E. J. Sundstrom,  
 H. L. Woodcock III,  P. M. Zimmerman,  D. Zuev,  B. Albrecht,  E. Alguire,  
 S. A. Baeppler,  D. Barton,  Z. Benda,  Y. A. Bernard,  E. J. Berquist,  
 K. B. Bravaya,  H. Burton,  D. Casanova,  Chun-Min Chang,  Yunqing Chen,  
 A. Chien,  K. D. Closser,  M. P. Coons,  S. Coriani,  S. Dasgupta,  
 A. L. Dempwolff,  M. Diedenhofen,  Hainam Do,  R. G. Edgar,  Po-Tung Fang,  
 S. Faraji,  S. Fatehi,  Qingguo Feng,  K. D. Fenk,  J. Fosso-Tande,  
 J. Gayvert,  Qinghui Ge,  A. Ghysels,  G. Gidofalvi,  J. Gomes,  
 J. Gonthier,  A. Gunina,  D. Hait,  M. W. D. Hanson-Heine,  
 P. H. P. Harbach,  A. W. Hauser,  M. F. Herbst,  J. E. Herr,  
 E. G. Hohenstein,  Z. C. Holden,  Kerwin Hui,  B. C. Huynh,  T.-C. Jagau,  
 Hyunjun Ji,  B. Kaduk,  K. Khistyaev,  Jaehoon Kim,  P. Klunzinger,  K. Koh,  
 D. Kosenkov,  L. Koulias,  T. Kowalczyk,  C. M. Krauter,  A. Kunitsa,  
 Ka Un Lao,  A. Laurent,  K. V. Lawler,  Joonho Lee,  D. Lefrancois,  
 S. Lehtola,  D. S. Levine,  Yi-Pei Li,  You-Sheng Lin,  Fenglai Liu,  
 E. Livshits,  A. Luenser,  P. Manohar,  E. Mansoor,  S. F. Manzer,  
 Shan-Ping Mao,  Yuezhi Mao,  N. Mardirossian,  A. V. Marenich,  
 T. Markovich,  L. A. Martinez-Martinez,  S. A. Maurer,  N. J. Mayhall,  
 S. C. McKenzie,  J.-M. Mewes,  P. Morgante,  A. F. Morrison,  
 J. W. Mullinax,  K. Nanda,  T. S. Nguyen-Beck,  R. Olivares-Amaya,  
 J. A. Parkhill,  Zheng Pei,  T. M. Perrine,  F. Plasser,  P. Pokhilko,  
 S. Prager,  A. Prociuk,  E. Ramos,  D. R. Rehn,  F. Rob,  M. Scheurer,  
 M. Schneider,  N. Sergueev,  S. M. Sharada,  S. Sharma,  D. W. Small,  
 T. Stauch,  T. Stein,  Yu-Chuan Su,  A. J. W. Thom,  A. Tkatchenko,  
 T. Tsuchimochi,  N. M. Tubman,  L. Vogt,  M. L. Vidal,  O. Vydrov,  
 M. A. Watson,  J. Wenzel,  M. de Wergifosse,  T. A. Wesolowski,  A. White,  
 J. Witte,  A. Yamada,  Jun Yang,  K. Yao,  S. Yeganeh,  S. R. Yost,  
 Zhi-Qiang You,  A. Zech,  Igor Ying Zhang,  Xing Zhang,  Yan Zhao,  
 Ying Zhu,  B. R. Brooks,  G. K. L. Chan,  C. J. Cramer,  M. S. Gordon,  
 W. J. Hehre,  A. Klamt,  M. W. Schmidt,  C. D. Sherrill,  D. G. Truhlar,  
 A. Aspuru-Guzik,  R. Baer,  A. T. Bell,  N. A. Besley,  Jeng-Da Chai,  
 A. E. DePrince, III,  R. A. DiStasio Jr.,  A. Dreuw,  B. D. Dunietz,  
 T. R. Furlani,  Chao-Ping Hsu,  Yousung Jung,  Jing Kong,  D. S. Lambrecht,  
 WanZhen Liang,  C. Ochsenfeld,  V. A. Rassolov,  L. V. Slipchenko,  
 J. E. Subotnik,  T. Van Voorhis,  J. M. Herbert,  A. I. Krylov,  
 P. M. W. Gill,  M. Head-Gordon

 Contributors to earlier versions of Q-Chem not listed above: 
 R. D. Adamson,  B. Austin,  J. Baker,  G. J. O. Beran,  K. Brandhorst,  
 S. T. Brown,  E. F. C. Byrd,  A. K. Chakraborty,  C.-L. Cheng,  
 Siu Hung Chien,  D. M. Chipman,  D. L. Crittenden,  H. Dachsel,  
 R. J. Doerksen,  A. D. Dutoi,  L. Fusti-Molnar,  W. A. Goddard III,  
 A. Golubeva-Zadorozhnaya,  S. R. Gwaltney,  G. Hawkins,  A. Heyden,  
 S. Hirata,  G. Kedziora,  F. J. Keil,  C. Kelley,  Jihan Kim,  R. A. King,  
 R. Z. Khaliullin,  P. P. Korambath,  W. Kurlancheek,  A. M. Lee,  M. S. Lee,  
 S. V. Levchenko,  Ching Yeh Lin,  D. Liotard,  R. C. Lochan,  I. Lotan,  
 P. E. Maslen,  N. Nair,  D. P. O'Neill,  D. Neuhauser,  E. Neuscamman,  
 C. M. Oana,  R. Olson,  B. Peters,  R. Peverati,  P. A. Pieniazek,  
 Y. M. Rhee,  J. Ritchie,  M. A. Rohrdanz,  E. Rosta,  N. J. Russ,  
 H. F. Schaefer III,  N. E. Schultz,  N. Shenvi,  A. C. Simmonett,  A. Sodt,  
 D. Stuck,  K. S. Thanthiriwatte,  V. Vanovschi,  Tao Wang,  A. Warshel,  
 C. F. Williams,  Q. Wu,  X. Xu,  W. Zhang

 Please cite Q-Chem as follows:
 Y. Shao et al., Mol. Phys. 113, 184-215 (2015)
 DOI: 10.1080/00268976.2014.952696

 Q-Chem 5.2.0 for Intel X86 EM64T Linux

 Parts of Q-Chem use Armadillo 8.300.2 (Tropical Shenanigans).
 http://arma.sourceforge.net/

 Q-Chem begins on Tue Jun 23 13:57:41 2020  

Host: gadi-cpu-clx-0263.gadi.nci.org.au
0

     Scratch files written to /jobfs/7626483.gadi-pbs/qchem66650//
NAlpha2: 18
NElect   18
Mult     1
The previous job contains 0 fragments, simply inherited here

Checking the input file for inconsistencies... 	...done.

--------------------------------------------------------------
User input:
--------------------------------------------------------------

$molecule
	READ
$end

$rem
	JOBTYPE	FREQ
	METHOD	M06
	BASIS	def2-TZVP
	ANHAR	TRUE
	SCF_CONVERGENCE	7
	VCI	4
$end
--------------------------------------------------------------
 ----------------------------------------------------------------
             Standard Nuclear Orientation (Angstroms)
    I     Atom           X                Y                Z
 ----------------------------------------------------------------
    1      C       0.6207857877     0.0001201394     0.0000486928
    2      H       0.9916354270     1.0145450467     0.1730039219
    3      F      -0.7438654930     0.0001298242     0.0000798318
    4      H       0.9897525690    -0.6586830655     0.7901268734
    5      H       0.9886867147    -0.3577512356    -0.9641414379
 ----------------------------------------------------------------
 Molecular Point Group                 C1    NOp =  1
 Largest Abelian Subgroup              C1    NOp =  1
 Nuclear Repulsion Energy =          37.63229990 hartrees
 There are        9 alpha and        9 beta electrons
 Requested basis set is def2-TZVP
 There are 34 shells and 80 basis functions

 Total QAlloc Memory Limit   2000 MB
 Mega-Array Size       188 MB
 MEM_STATIC part       192 MB

                       Distance Matrix (Angstroms)
             C (  1)   H (  2)   F (  3)   H (  4)
   H (  2)  1.093847
   F (  3)  1.364651  2.017648
   H (  4)  1.092878  1.783406  2.015847
   H (  5)  1.092285  1.782219  2.014830  1.779893
 
 A cutoff of  1.0D-10 yielded    593 shell pairs
 There are      3347 function pairs (      4270 Cartesian)
 Smallest overlap matrix eigenvalue = 1.98E-03
 Guess from superposition of atomic densities
 Warning:  Energy on first SCF cycle will be non-variational
 SAD guess density has 18.000000 electrons

 -----------------------------------------------------------------------
  General SCF calculation program by
  Eric Jon Sundstrom, Paul Horn, Yuezhi Mao, Dmitri Zuev, Alec White,
  David Stuck, Shaama M.S., Shane Yost, Joonho Lee, David Small,
  Daniel Levine, Susi Lehtola, Hugh Burton, Evgeny Epifanovsky
 -----------------------------------------------------------------------
 Exchange:     0.2700 Hartree-Fock + 1.0000 M06
 Correlation:  1.0000 M06
 Using SG-3 standard quadrature grid
 using 4 threads for integral computing
 -------------------------------------------------------
 OpenMP Integral computing Module                
 Release: version 2.0, May 2017, Q-Chem Inc. Pleasanton 
 -------------------------------------------------------
 A restricted SCF calculation will be
 performed using DIIS
 SCF converges when DIIS error is below 1.0e-07
 ---------------------------------------
  Cycle       Energy         DIIS error
 ---------------------------------------
    1    -139.8231859546      5.32e-02  
    2    -139.7043860052      6.53e-03  
    3    -139.7020705892      7.47e-03  
    4    -139.7295977509      9.07e-04  
    5    -139.7299478533      3.85e-04  
    6    -139.7300328954      6.18e-05  
    7    -139.7300352514      3.98e-06  
    8    -139.7300352621      6.25e-07  
    9    -139.7300352624      1.18e-07  
   10    -139.7300352629      8.82e-09  Convergence criterion met
 ---------------------------------------
 SCF time:   CPU 12.59s  wall 4.00s 
 SCF   energy in the final basis set =     -139.7300352629
 Total energy in the final basis set =     -139.7300352629
 
 --------------------------------------------------------------
 
                    Orbital Energies (a.u.)
 --------------------------------------------------------------
 
 Alpha MOs
 -- Occupied --
-24.7561 -10.3094  -1.2345  -0.7134  -0.5147  -0.5005  -0.5003  -0.3618
 -0.3616
 -- Virtual --
  0.0482   0.0809   0.1045   0.1046   0.2085   0.2088   0.2963   0.3218
  0.4053   0.4057   0.4305   0.5449   0.5906   0.5908   0.7308   0.7311
  0.8701   0.8702   0.9101   1.0013   1.3856   1.4032   1.4038   1.4825
  1.6250   1.6721   1.6736   1.8481   1.8525   1.8738   2.2108   2.2149
  2.2263   2.2291   2.2333   2.3899   2.4626   2.4647   2.6953   2.6970
  2.8306   2.9052   2.9056   3.2022   3.2029   3.2431   3.2595   3.3997
  3.4055   3.5022   3.6941   3.6948   3.8561   3.9708   3.9804   4.1020
  5.0431   6.9206   6.9224   7.0109   7.0112   7.2746   7.2748   7.3325
  8.4506   8.4511   8.8420   8.8422   9.0756  22.2079  56.9396
 --------------------------------------------------------------
 
          Ground-State Mulliken Net Atomic Charges

     Atom                 Charge (a.u.)
  ----------------------------------------
      1 C                     0.037546
      2 H                     0.079955
      3 F                    -0.275716
      4 H                     0.078700
      5 H                     0.079515
  ----------------------------------------
  Sum of atomic charges =     0.000000

 -----------------------------------------------------------------
                    Cartesian Multipole Moments
 -----------------------------------------------------------------
    Charge (ESU x 10^10)
                -0.0000
    Dipole Moment (Debye)
         X       1.7181      Y      -0.0068      Z       0.0021
       Tot       1.7181
    Quadrupole Moments (Debye-Ang)
        XX     -12.4210     XY      -0.0050     YY     -11.8640
        XZ       0.0027     YZ      -0.0004     ZZ     -11.8717
    Octopole Moments (Debye-Ang^2)
       XXX      -4.5259    XXY      -0.0055    XYY      -1.3153
       YYY       0.4627    XXZ       0.0024    XYZ      -0.0000
       YYZ       0.2683    XZZ      -1.3266    YZZ      -0.4838
       ZZZ      -0.2617
    Hexadecapole Moments (Debye-Ang^3)
      XXXX     -50.5629   XXXY      -0.0090   XXYY     -11.2097
      XYYY       0.5220   YYYY     -17.1769   XXXZ       0.0028
      XXYZ      -0.0001   XYYZ       0.3007   YYYZ      -0.0048
      XXZZ     -11.2184   XYZZ      -0.5415   YYZZ      -5.7152
      XZZZ      -0.2940   YZZZ      -0.0024   ZZZZ     -17.1482
 -----------------------------------------------------------------
 Calculating MO derivatives via CPSCF
    1     0    18    0.0381785  
    2     0    18    0.0107669  
    3     0    18    0.0015921  
    4     0    18    0.0001278  
    5    13     5    0.0000088  
    6    18     0    0.0000007  Converged
 Time for AOints: 0.9 s (CPU) 0.2 s (wall)
 ------------------------------------------------------------------------------
                     AOints        : Timing summary (seconds)
 ------------------------------------------------------------------------------
     job step          cpu (% of tot)      sys (% of tot)     wall (% of tot)
 ------------------------------------------------------------------------------
  AOints            0.9155E+00 ( 2.0)   0.3000E-05 (13.6)   0.2354E+00 ( 2.1)
 ------------------------------------------------------------------------------
   Grand Totals     0.4469E+02          0.2200E-04          0.1121E+02
 ------------------------------------------------------------------------------
 Polarizability Matrix (a.u.)
            1           2           3
    1 -15.2036099  -0.0124051  -0.0015110
    2  -0.0124051 -14.9541211  -0.0023559
    3  -0.0015110  -0.0023559 -14.9236640
 Calculating analytic Hessian of the SCF energy
 
 Direct stationary perturbation theory relativistic correction:
 
 rels  =       0.058259276979
 relv  =      -0.226488134428
 rel2e =       0.067478874185
 E_rel =      -0.100749983265
 
 Hessian of the SCF Energy
            1           2           3           4           5           6
    1   0.5032381  -0.0000547  -0.0006593  -0.0685740  -0.0744445  -0.0135070
    2  -0.0000547   0.5796070   0.0035301  -0.0660677  -0.2821508  -0.0402176
    3  -0.0006593   0.0035301   0.5766299  -0.0122094  -0.0402641  -0.0579689
    4  -0.0685740  -0.0660677  -0.0122094   0.0911083   0.0860121   0.0155594
    5  -0.0744445  -0.2821508  -0.0402641   0.0860121   0.2956632   0.0436604
    6  -0.0135070  -0.0402176  -0.0579689   0.0155594   0.0436604   0.0518724
    7  -0.2988783   0.0001069   0.0002927  -0.0339396  -0.0054336  -0.0009619
    8   0.0000620  -0.0650727   0.0000906  -0.0356057   0.0089986   0.0009037
    9  -0.0000547  -0.0000181  -0.0650948  -0.0060530   0.0009640   0.0035824
   10  -0.0671811   0.0421096  -0.0494594   0.0056960  -0.0042294   0.0066457
   11   0.0474751  -0.1503316   0.1161517   0.0077978  -0.0150101   0.0222274
   12  -0.0558782   0.1159606  -0.1918373   0.0022732  -0.0048344   0.0050884
   13  -0.0686047   0.0239059   0.0620354   0.0057093  -0.0019046  -0.0077362
   14   0.0269621  -0.0820519  -0.0795083   0.0078635  -0.0075010  -0.0265739
   15   0.0700993  -0.0792550  -0.2617288   0.0004298   0.0004741  -0.0025743
            7           8           9          10          11          12
    1  -0.2988783   0.0000620  -0.0000547  -0.0671811   0.0474751  -0.0558782
    2   0.0001069  -0.0650727  -0.0000181   0.0421096  -0.1503316   0.1159606
    3   0.0002927   0.0000906  -0.0650948  -0.0494594   0.1161517  -0.1918373
    4  -0.0339396  -0.0356057  -0.0060530   0.0056960   0.0077978   0.0022732
    5  -0.0054336   0.0089986   0.0009640  -0.0042294  -0.0150101  -0.0048344
    6  -0.0009619   0.0009037   0.0035824   0.0066457   0.0222274   0.0050884
    7   0.4012066  -0.0001389  -0.0002478  -0.0341584   0.0035681  -0.0042767
    8  -0.0001389   0.0461262   0.0000281   0.0230991   0.0057579  -0.0028906
    9  -0.0002478   0.0000281   0.0461084  -0.0277595  -0.0027880   0.0068942
   10  -0.0341584   0.0230991  -0.0277595   0.0898843  -0.0551647   0.0651301
   11   0.0035681   0.0057579  -0.0027880  -0.0551647   0.1518544  -0.1265093
   12  -0.0042767  -0.0028906   0.0068942   0.0651301  -0.1265093   0.1975654
   13  -0.0342302   0.0125836   0.0341150   0.0057592  -0.0036762  -0.0072484
   14   0.0018975   0.0041900   0.0018140  -0.0058146   0.0077294   0.0182736
   15   0.0051937   0.0018682   0.0085098   0.0054431  -0.0090819  -0.0177107
           13          14          15
    1  -0.0686047   0.0269621   0.0700993
    2   0.0239059  -0.0820519  -0.0792550
    3   0.0620354  -0.0795083  -0.2617288
    4   0.0057093   0.0078635   0.0004298
    5  -0.0019046  -0.0075010   0.0004741
    6  -0.0077362  -0.0265739  -0.0025743
    7  -0.0342302   0.0018975   0.0051937
    8   0.0125836   0.0041900   0.0018682
    9   0.0341150   0.0018140   0.0085098
   10   0.0057592  -0.0058146   0.0054431
   11  -0.0036762   0.0077294  -0.0090819
   12  -0.0072484   0.0182736  -0.0177107
   13   0.0913664  -0.0309086  -0.0811659
   14  -0.0309086   0.0776334   0.0859945
   15  -0.0811659   0.0859945   0.2735040
 **********************************************************************
 **                                                                  **
 **                       VIBRATIONAL ANALYSIS                       **
 **                       --------------------                       **
 **                                                                  **
 **        VIBRATIONAL FREQUENCIES (CM**-1) AND NORMAL MODES         **
 **     FORCE CONSTANTS (mDYN/ANGSTROM) AND REDUCED MASSES (AMU)     **
 **                  INFRARED INTENSITIES (KM/MOL)                   **
 **                                                                  **
 **********************************************************************
 

 Mode:                 1                      2                      3
 Frequency:      1119.62                1191.56                1194.94
 Force Cnst:      5.7842                 1.0649                 1.0735
 Red. Mass:       7.8316                 1.2730                 1.2761
 IR Active:          YES                    YES                    YES
 IR Intens:      123.459                  1.394                  1.272
 Raman Active:       YES                    YES                    YES
               X      Y      Z        X      Y      Z        X      Y      Z
 C          0.571  0.004 -0.000   -0.003  0.139  0.003    0.002  0.003 -0.140
 H          0.427  0.026  0.007    0.723 -0.132  0.017   -0.125 -0.031  0.319
 F         -0.425 -0.002  0.000    0.002 -0.054 -0.001    0.000 -0.001  0.053
 H          0.390 -0.027  0.018   -0.468 -0.238 -0.096   -0.573  0.087  0.199
 H          0.396 -0.021 -0.025   -0.265 -0.280  0.060    0.674 -0.078  0.150
 TransDip   0.356  0.000  0.000   -0.004  0.038 -0.000    0.001 -0.000 -0.036

 Mode:                 4                      5                      6
 Frequency:      1460.86                1475.43                1484.26
 Force Cnst:      1.3123                 1.3792                 1.4373
 Red. Mass:       1.0437                 1.0753                 1.1073
 IR Active:          YES                    YES                    YES
 IR Intens:        4.170                  3.963                  3.529
 Raman Active:       YES                    YES                    YES
               X      Y      Z        X      Y      Z        X      Y      Z
 C          0.010  0.025 -0.049   -0.061 -0.040 -0.024   -0.087  0.032  0.009
 H         -0.133 -0.058  0.682    0.571 -0.280  0.156    0.211 -0.073 -0.074
 F          0.001  0.003 -0.009   -0.009 -0.007 -0.003   -0.012  0.005  0.002
 H          0.300  0.215  0.009    0.238  0.513  0.301    0.497 -0.174 -0.418
 H         -0.308 -0.525  0.058    0.082  0.369 -0.111    0.558 -0.236  0.342
 TransDip   0.005 -0.027  0.059   -0.033  0.048  0.025   -0.047 -0.035 -0.015

 Mode:                 7                      8                      9
 Frequency:      3014.33                3098.34                3108.28
 Force Cnst:      5.5131                 6.2505                 6.2948
 Red. Mass:       1.0298                 1.1051                 1.1058
 IR Active:          YES                    YES                    YES
 IR Intens:       34.291                 32.633                 31.960
 Raman Active:       YES                    YES                    YES
               X      Y      Z        X      Y      Z        X      Y      Z
 C         -0.044  0.001 -0.007    0.002  0.077 -0.054    0.002 -0.055 -0.077
 H          0.195  0.542  0.093   -0.198 -0.553 -0.113    0.179  0.508  0.071
 F         -0.003 -0.000  0.000    0.000 -0.000  0.000    0.000  0.000  0.000
 H          0.204 -0.376  0.448    0.244 -0.457  0.554    0.055 -0.118  0.114
 H          0.174 -0.174 -0.463   -0.078  0.099  0.204   -0.266  0.266  0.724
 TransDip  -0.187  0.005 -0.016    0.008  0.148 -0.107    0.010 -0.105 -0.147

 STANDARD THERMODYNAMIC QUANTITIES AT   298.15 K  AND     1.00 ATM

   This Molecule has  0 Imaginary Frequencies
   Zero point vibrational energy:       24.514 kcal/mol

   Atom    1 Element C  Has Mass   12.00000
   Atom    2 Element H  Has Mass    1.00783
   Atom    3 Element F  Has Mass   18.99840
   Atom    4 Element H  Has Mass    1.00783
   Atom    5 Element H  Has Mass    1.00783
   Molecular Mass:    34.021890 amu
   Principal axes and moments of inertia in amu*Bohr^2:
                             1           2           3
    Eigenvalues --       11.42673    68.90929    68.93575
          X               1.00000     0.00002     0.00002
          Y              -0.00002     1.00000    -0.00001
          Z              -0.00002     0.00001     1.00000
   Rotational Symmetry Number is   1
   The Molecule is an Asymmetric Top
   Translational Enthalpy:        0.889 kcal/mol
   Rotational Enthalpy:           0.889 kcal/mol
   Vibrational Enthalpy:         24.560 kcal/mol
   gas constant (RT):             0.592 kcal/mol
   Translational Entropy:        36.504  cal/mol.K
   Rotational Entropy:           18.635  cal/mol.K
   Vibrational Entropy:           0.182  cal/mol.K

   Total Enthalpy:               26.930 kcal/mol
   Total Entropy:                55.321  cal/mol.K
 =====================================================
 =====================================================
 = Starting finite difference calculation for ANHAR  =
 Finite diff step size:  9.99854e-02 a.u.

 Low frequencies less than 300 will be treated as rotation
 Anharmonic Force Field will start with mode 1

 Eng[0,0,0,0] = -1.39730035262916e+02


 You need 0.0009710 GB memory


 CoordNormalMode -1 , 0 , 0 , 0
 ----------------------------------------------------------------
             Standard Nuclear Orientation (Angstroms)
    I     Atom           X                Y                Z
 ----------------------------------------------------------------
    1      C       0.5905982609    -0.0001178069     0.0000493589
    2      H       0.9690487659     1.0131818071     0.1726431845
    3      F      -0.7213934954     0.0002172977     0.0000787885
    4      H       0.9691281831    -0.6572694676     0.7891728402
    5      H       0.9677186065    -0.3566173676    -0.9628149319
 ----------------------------------------------------------------
 Nuclear Repulsion Energy =          38.59950626 hartrees
 There are        9 alpha and        9 beta electrons

                       Distance Matrix (Angstroms)
             C (  1)   H (  2)   F (  3)   H (  4)
   H (  2)  1.095349
   F (  3)  1.311992  1.978249
   H (  4)  1.094463  1.780594  1.978085
   H (  5)  1.093810  1.779218  1.976764  1.777598
 
 Requested basis set is def2-TZVP
 There are 34 shells and 80 basis functions
 A cutoff of  1.0D-10 yielded    593 shell pairs
 There are      3347 function pairs (      4270 Cartesian)
 Smallest overlap matrix eigenvalue = 1.91E-03
 Guess MOs from SCF MO coefficient file

 -----------------------------------------------------------------------
  General SCF calculation program by
  Eric Jon Sundstrom, Paul Horn, Yuezhi Mao, Dmitri Zuev, Alec White,
  David Stuck, Shaama M.S., Shane Yost, Joonho Lee, David Small,
  Daniel Levine, Susi Lehtola, Hugh Burton, Evgeny Epifanovsky
 -----------------------------------------------------------------------
 Exchange:     0.2700 Hartree-Fock + 1.0000 M06
 Correlation:  1.0000 M06
 Using SG-3 standard quadrature grid
 using 4 threads for integral computing
 -------------------------------------------------------
 OpenMP Integral computing Module                
 Release: version 2.0, May 2017, Q-Chem Inc. Pleasanton 
 -------------------------------------------------------
 A restricted SCF calculation will be
 performed using DIIS
 SCF converges when DIIS error is below 1.0e-07
 ---------------------------------------
  Cycle       Energy         DIIS error
 ---------------------------------------
    1    -139.7267549883      1.34e-03  
    2    -139.7278896586      4.35e-04  
    3    -139.7279069627      3.66e-04  
    4    -139.7279641391      6.29e-05  
    5    -139.7279658238      1.16e-05  
    6    -139.7279659109      4.11e-06  
    7    -139.7279659227      2.04e-07  
    8    -139.7279659236      5.77e-08  Convergence criterion met
 ---------------------------------------
 SCF time:   CPU 10.18s  wall 3.00s 
 SCF   energy in the final basis set =     -139.7279659236
 Total energy in the final basis set =     -139.7279659236
 
 --------------------------------------------------------------
 
                    Orbital Energies (a.u.)
 --------------------------------------------------------------
 
 Alpha MOs
 -- Occupied --
-24.7617 -10.3054  -1.2588  -0.7116  -0.5272  -0.5130  -0.5129  -0.3570
 -0.3567
 -- Virtual --
  0.0502   0.0920   0.1079   0.1080   0.2084   0.2085   0.3053   0.3476
  0.4073   0.4077   0.4372   0.5368   0.5953   0.5954   0.7326   0.7328
  0.8711   0.8711   0.9087   1.0223   1.3896   1.4031   1.4036   1.4889
  1.6096   1.6926   1.6939   1.8422   1.8462   1.8801   2.2300   2.2342
  2.2360   2.2367   2.2413   2.4103   2.4600   2.4617   2.7125   2.7132
  2.8504   2.9132   2.9135   3.2204   3.2212   3.2508   3.2557   3.4153
  3.4212   3.5728   3.7247   3.7258   3.8666   4.0066   4.0146   4.1028
  5.0212   6.9124   6.9152   7.0360   7.0363   7.3387   7.3389   7.4014
  8.4594   8.4598   8.8832   8.8833   9.0623  22.3568  56.9618
 --------------------------------------------------------------
 
          Ground-State Mulliken Net Atomic Charges

     Atom                 Charge (a.u.)
  ----------------------------------------
      1 C                     0.049887
      2 H                     0.069036
      3 F                    -0.255277
      4 H                     0.067748
      5 H                     0.068607
  ----------------------------------------
  Sum of atomic charges =     0.000000

 -----------------------------------------------------------------
                    Cartesian Multipole Moments
 -----------------------------------------------------------------
    Charge (ESU x 10^10)
                -0.0000
    Dipole Moment (Debye)
         X       1.4590      Y      -0.0070      Z       0.0020
       Tot       1.4590
    Quadrupole Moments (Debye-Ang)
        XX     -12.5182     XY      -0.0062     YY     -11.9023
        XZ       0.0025     YZ      -0.0010     ZZ     -11.9076
    Octopole Moments (Debye-Ang^2)
       XXX      -4.7049    XXY      -0.0077    XYY      -1.4444
       YYY       0.4057    XXZ       0.0021    XYZ      -0.0011
       YYZ       0.2363    XZZ      -1.4511    YZZ      -0.4263
       ZZZ      -0.2298
    Hexadecapole Moments (Debye-Ang^3)
      XXXX     -48.2827   XXXY      -0.0092   XXYY     -10.9300
      XYYY       0.4575   YYYY     -17.4188   XXXZ       0.0021
      XXYZ      -0.0014   XYYZ       0.2625   YYYZ      -0.0038
      XXZZ     -10.9325   XYZZ      -0.4719   YYZZ      -5.7970
      XZZZ      -0.2563   YZZZ      -0.0025   ZZZZ     -17.3901
 -----------------------------------------------------------------
 Eng[-1,0,0,0] = -1.39727965923611e+02
 points done 1/468
 CoordNormalMode -1 , -1 , 0 , 0
 ----------------------------------------------------------------
             Standard Nuclear Orientation (Angstroms)
    I     Atom           X                Y                Z
 ----------------------------------------------------------------
    1      C       0.5604107342    -0.0003557532     0.0000500251
    2      H       0.9464621048     1.0118185675     0.1722824471
    3      F      -0.6989214978     0.0003047713     0.0000777452
    4      H       0.9485037972    -0.6558558698     0.7882188069
    5      H       0.9467504982    -0.3554834997    -0.9614884259
 ----------------------------------------------------------------
 Nuclear Repulsion Energy =          39.64103769 hartrees
 There are        9 alpha and        9 beta electrons

                       Distance Matrix (Angstroms)
             C (  1)   H (  2)   F (  3)   H (  4)
   H (  2)  1.096903
   F (  3)  1.259332  1.939098
   H (  4)  1.096133  1.777785  1.940547
   H (  5)  1.095413  1.776218  1.938925  1.775303
 
 Requested basis set is def2-TZVP
 There are 34 shells and 80 basis functions
 A cutoff of  1.0D-10 yielded    593 shell pairs
 There are      3347 function pairs (      4270 Cartesian)
 Smallest overlap matrix eigenvalue = 1.78E-03
 Guess MOs from SCF MO coefficient file

 -----------------------------------------------------------------------
  General SCF calculation program by
  Eric Jon Sundstrom, Paul Horn, Yuezhi Mao, Dmitri Zuev, Alec White,
  David Stuck, Shaama M.S., Shane Yost, Joonho Lee, David Small,
  Daniel Levine, Susi Lehtola, Hugh Burton, Evgeny Epifanovsky
 -----------------------------------------------------------------------
 Exchange:     0.2700 Hartree-Fock + 1.0000 M06
 Correlation:  1.0000 M06
 Using SG-3 standard quadrature grid
 using 4 threads for integral computing
 -------------------------------------------------------
 OpenMP Integral computing Module                
 Release: version 2.0, May 2017, Q-Chem Inc. Pleasanton 
 -------------------------------------------------------
 A restricted SCF calculation will be
 performed using DIIS
 SCF converges when DIIS error is below 1.0e-07
 ---------------------------------------
  Cycle       Energy         DIIS error
 ---------------------------------------
    1    -139.7193108406      1.52e-03  
    2    -139.7206615256      4.69e-04  
    3    -139.7206871081      3.73e-04  
    4    -139.7207461080      6.88e-05  
    5    -139.7207480870      1.16e-05  
    6    -139.7207481701      4.53e-06  
    7    -139.7207481843      2.16e-07  
    8    -139.7207481852      5.91e-08  Convergence criterion met
 ---------------------------------------
 SCF time:   CPU 10.19s  wall 3.00s 
 SCF   energy in the final basis set =     -139.7207481852
 Total energy in the final basis set =     -139.7207481852
 
 --------------------------------------------------------------
 
                    Orbital Energies (a.u.)
 --------------------------------------------------------------
 
 Alpha MOs
 -- Occupied --
-24.7675 -10.3019  -1.2864  -0.7104  -0.5395  -0.5282  -0.5281  -0.3511
 -0.3507
 -- Virtual --
  0.0523   0.1004   0.1115   0.1116   0.2078   0.2079   0.3095   0.3805
  0.4095   0.4098   0.4477   0.5284   0.5996   0.5997   0.7344   0.7346
  0.8723   0.8724   0.9084   1.0476   1.3934   1.4022   1.4026   1.4956
  1.5844   1.7144   1.7156   1.8391   1.8425   1.8870   2.2168   2.2379
  2.2403   2.2540   2.2579   2.4586   2.4599   2.4684   2.7214   2.7218
  2.8722   2.9236   2.9239   3.2412   3.2419   3.2426   3.2606   3.4326
  3.4384   3.6470   3.7505   3.7519   3.8790   4.0507   4.0569   4.1017
  4.9842   6.9042   6.9088   7.0692   7.0694   7.4117   7.4120   7.4883
  8.4696   8.4698   8.9210   8.9214   9.0607  22.5191  56.9798
 --------------------------------------------------------------
 
          Ground-State Mulliken Net Atomic Charges

     Atom                 Charge (a.u.)
  ----------------------------------------
      1 C                     0.057285
      2 H                     0.056837
      3 F                    -0.226128
      4 H                     0.055568
      5 H                     0.056438
  ----------------------------------------
  Sum of atomic charges =     0.000000

 -----------------------------------------------------------------
                    Cartesian Multipole Moments
 -----------------------------------------------------------------
    Charge (ESU x 10^10)
                -0.0000
    Dipole Moment (Debye)
         X       1.1862      Y      -0.0074      Z       0.0020
       Tot       1.1862
    Quadrupole Moments (Debye-Ang)
        XX     -12.6147     XY      -0.0074     YY     -11.9491
        XZ       0.0023     YZ      -0.0016     ZZ     -11.9518
    Octopole Moments (Debye-Ang^2)
       XXX      -4.8905    XXY      -0.0098    XYY      -1.5905
       YYY       0.3410    XXZ       0.0018    XYZ      -0.0021
       YYZ       0.2003    XZZ      -1.5931    YZZ      -0.3618
       ZZZ      -0.1938
    Hexadecapole Moments (Debye-Ang^3)
      XXXX     -46.1040   XXXY      -0.0090   XXYY     -10.6792
      XYYY       0.3878   YYYY     -17.7065   XXXZ       0.0014
      XXYZ      -0.0026   XYYZ       0.2215   YYYZ      -0.0029
      XXZZ     -10.6761   XYZZ      -0.3975   YYZZ      -5.8940
      XZZZ      -0.2159   YZZZ      -0.0026   ZZZZ     -17.6777
 -----------------------------------------------------------------
 Eng[-1,-1,0,0] = -1.39720748185169e+02
 points done 2/468
 CoordNormalMode -2 , 0 , 0 , 0
 ----------------------------------------------------------------
             Standard Nuclear Orientation (Angstroms)
    I     Atom           X                Y                Z
 ----------------------------------------------------------------
    1      C       0.6209306841    -0.0072520913    -0.0000932816
    2      H       0.9533696761     1.0215358639     0.1720855573
    3      F      -0.7439833034     0.0029610006     0.0001164009
    4      H       1.0145047057    -0.6460965487     0.7952025406
    5      H       1.0026959011    -0.3429190485    -0.9672976421
 ----------------------------------------------------------------
 Nuclear Repulsion Energy =          37.62179813 hartrees
 There are        9 alpha and        9 beta electrons

                       Distance Matrix (Angstroms)
             C (  1)   H (  2)   F (  3)   H (  4)
   H (  2)  1.094790
   F (  3)  1.364952  1.986976
   H (  4)  1.093398  1.781295  2.036104
   H (  5)  1.092658  1.778304  2.026428  1.788425
 
 Requested basis set is def2-TZVP
 There are 34 shells and 80 basis functions
 A cutoff of  1.0D-10 yielded    593 shell pairs
 There are      3347 function pairs (      4270 Cartesian)
 Smallest overlap matrix eigenvalue = 1.98E-03
 Guess MOs from SCF MO coefficient file

 -----------------------------------------------------------------------
  General SCF calculation program by
  Eric Jon Sundstrom, Paul Horn, Yuezhi Mao, Dmitri Zuev, Alec White,
  David Stuck, Shaama M.S., Shane Yost, Joonho Lee, David Small,
  Daniel Levine, Susi Lehtola, Hugh Burton, Evgeny Epifanovsky
 -----------------------------------------------------------------------
 Exchange:     0.2700 Hartree-Fock + 1.0000 M06
 Correlation:  1.0000 M06
 Using SG-3 standard quadrature grid
 using 4 threads for integral computing
 -------------------------------------------------------
 OpenMP Integral computing Module                
 Release: version 2.0, May 2017, Q-Chem Inc. Pleasanton 
 -------------------------------------------------------
 A restricted SCF calculation will be
 performed using DIIS
 SCF converges when DIIS error is below 1.0e-07
 ---------------------------------------
  Cycle       Energy         DIIS error
 ---------------------------------------
    1    -139.7241347349      2.99e-03  
    2    -139.7292272162      1.05e-03  
    3    -139.7292903115      9.32e-04  
    4    -139.7296669500      1.32e-04  
    5    -139.7296747118      2.93e-05  
    6    -139.7296752933      8.16e-06  
    7    -139.7296753397      4.48e-07  
    8    -139.7296753394      1.26e-07  
    9    -139.7296753391      9.61e-09  Convergence criterion met
 ---------------------------------------
 SCF time:   CPU 11.39s  wall 3.00s 
 SCF   energy in the final basis set =     -139.7296753391
 Total energy in the final basis set =     -139.7296753391
 
 --------------------------------------------------------------
 
                    Orbital Energies (a.u.)
 --------------------------------------------------------------
 
 Alpha MOs
 -- Occupied --
-24.7561 -10.3096  -1.2344  -0.7133  -0.5148  -0.5005  -0.4999  -0.3633
 -0.3599
 -- Virtual --
  0.0481   0.0803   0.1046   0.1047   0.2065   0.2109   0.2961   0.3215
  0.4049   0.4057   0.4302   0.5446   0.5899   0.5917   0.7289   0.7329
  0.8691   0.8718   0.9102   1.0006   1.3853   1.4033   1.4045   1.4819
  1.6235   1.6713   1.6756   1.8487   1.8518   1.8738   2.2027   2.2170
  2.2227   2.2299   2.2398   2.3891   2.4616   2.4638   2.6817   2.7082
  2.8304   2.9036   2.9073   3.1985   3.2019   3.2446   3.2595   3.3952
  3.4064   3.5014   3.6926   3.7003   3.8558   3.9688   3.9781   4.1006
  5.0443   6.9206   6.9223   7.0093   7.0127   7.2739   7.2748   7.3322
  8.4486   8.4523   8.8377   8.8466   9.0757  22.2040  56.9396
 --------------------------------------------------------------
 
          Ground-State Mulliken Net Atomic Charges

     Atom                 Charge (a.u.)
  ----------------------------------------
      1 C                     0.036418
      2 H                     0.080036
      3 F                    -0.275616
      4 H                     0.079222
      5 H                     0.079941
  ----------------------------------------
  Sum of atomic charges =     0.000000

 -----------------------------------------------------------------
                    Cartesian Multipole Moments
 -----------------------------------------------------------------
    Charge (ESU x 10^10)
                -0.0000
    Dipole Moment (Debye)
         X       1.7182      Y      -0.0175      Z       0.0021
       Tot       1.7183
    Quadrupole Moments (Debye-Ang)
        XX     -12.4211     XY      -0.0517     YY     -11.8910
        XZ       0.0026     YZ      -0.0124     ZZ     -11.8502
    Octopole Moments (Debye-Ang^2)
       XXX      -4.5255    XXY      -0.0871    XYY      -1.3727
       YYY       0.4757    XXZ       0.0026    XYZ      -0.0278
       YYZ       0.2681    XZZ      -1.2751    YZZ      -0.4793
       ZZZ      -0.2630
    Hexadecapole Moments (Debye-Ang^3)
      XXXX     -50.5853   XXXY      -0.0250   XXYY     -11.2981
      XYYY       0.6448   YYYY     -17.1509   XXXZ       0.0041
      XXYZ      -0.0425   XYYZ       0.3006   YYYZ       0.0141
      XXZZ     -11.1455   XYZZ      -0.5001   YYZZ      -5.7443
      XZZZ      -0.2943   YZZZ      -0.0126   ZZZZ     -17.1535
 -----------------------------------------------------------------
 Eng[-2,0,0,0] = -1.39729675339062e+02
 points done 3/468
 CoordNormalMode -2 , -2 , 0 , 0
 ----------------------------------------------------------------
             Standard Nuclear Orientation (Angstroms)
    I     Atom           X                Y                Z
 ----------------------------------------------------------------
    1      C       0.6210755806    -0.0146243221    -0.0002352561
    2      H       0.9151039252     1.0285266811     0.1711671928
    3      F      -0.7441011138     0.0057921770     0.0001529701
    4      H       1.0392568424    -0.6335100319     0.8002782078
    5      H       1.0167050875    -0.3280868613    -0.9704538463
 ----------------------------------------------------------------
 Nuclear Repulsion Energy =          37.60238516 hartrees
 There are        9 alpha and        9 beta electrons

                       Distance Matrix (Angstroms)
             C (  1)   H (  2)   F (  3)   H (  4)
   H (  2)  1.097267
   F (  3)  1.365329  1.956577
   H (  4)  1.094859  1.781449  2.056520
   H (  5)  1.093666  1.775957  2.038134  1.797021
 
 Requested basis set is def2-TZVP
 There are 34 shells and 80 basis functions
 A cutoff of  1.0D-10 yielded    593 shell pairs
 There are      3347 function pairs (      4270 Cartesian)
 Smallest overlap matrix eigenvalue = 1.99E-03
 Guess MOs from SCF MO coefficient file

 -----------------------------------------------------------------------
  General SCF calculation program by
  Eric Jon Sundstrom, Paul Horn, Yuezhi Mao, Dmitri Zuev, Alec White,
  David Stuck, Shaama M.S., Shane Yost, Joonho Lee, David Small,
  Daniel Levine, Susi Lehtola, Hugh Burton, Evgeny Epifanovsky
 -----------------------------------------------------------------------
 Exchange:     0.2700 Hartree-Fock + 1.0000 M06
 Correlation:  1.0000 M06
 Using SG-3 standard quadrature grid
 using 4 threads for integral computing
 -------------------------------------------------------
 OpenMP Integral computing Module                
 Release: version 2.0, May 2017, Q-Chem Inc. Pleasanton 
 -------------------------------------------------------
 A restricted SCF calculation will be
 performed using DIIS
 SCF converges when DIIS error is below 1.0e-07
 ---------------------------------------
  Cycle       Energy         DIIS error
 ---------------------------------------
    1    -139.7284645407      4.15e-04  
    2    -139.7286189596      4.57e-05  
    3    -139.7286210571      2.52e-05  
    4    -139.7286214790      8.28e-06  
    5    -139.7286215317      9.77e-07  
    6    -139.7286215322      6.24e-07  
    7    -139.7286215324      9.91e-08  Convergence criterion met
 ---------------------------------------
 SCF time:   CPU 8.84s  wall 2.00s 
 SCF   energy in the final basis set =     -139.7286215324
 Total energy in the final basis set =     -139.7286215324
 
 --------------------------------------------------------------
 
                    Orbital Energies (a.u.)
 --------------------------------------------------------------
 
 Alpha MOs
 -- Occupied --
-24.7562 -10.3102  -1.2345  -0.7129  -0.5151  -0.5005  -0.4993  -0.3646
 -0.3577
 -- Virtual --
  0.0480   0.0787   0.1046   0.1054   0.2044   0.2133   0.2956   0.3208
  0.4044   0.4053   0.4295   0.5436   0.5889   0.5937   0.7267   0.7351
  0.8683   0.8740   0.9106   0.9985   1.3842   1.4046   1.4063   1.4809
  1.6196   1.6687   1.6828   1.8464   1.8551   1.8742   2.1898   2.2142
  2.2182   2.2348   2.2524   2.3871   2.4582   2.4635   2.6665   2.7157
  2.8316   2.9016   2.9106   3.1887   3.2000   3.2475   3.2594   3.3868
  3.4047   3.5012   3.6972   3.7093   3.8552   3.9565   3.9829   4.0981
  5.0482   6.9204   6.9221   7.0074   7.0146   7.2732   7.2751   7.3320
  8.4456   8.4532   8.8336   8.8516   9.0758  22.1945  56.9401
 --------------------------------------------------------------
 
          Ground-State Mulliken Net Atomic Charges

     Atom                 Charge (a.u.)
  ----------------------------------------
      1 C                     0.033868
      2 H                     0.080645
      3 F                    -0.275216
      4 H                     0.080087
      5 H                     0.080615
  ----------------------------------------
  Sum of atomic charges =     0.000000

 -----------------------------------------------------------------
                    Cartesian Multipole Moments
 -----------------------------------------------------------------
    Charge (ESU x 10^10)
                -0.0000
    Dipole Moment (Debye)
         X       1.7165      Y      -0.0280      Z       0.0021
       Tot       1.7167
    Quadrupole Moments (Debye-Ang)
        XX     -12.4216     XY      -0.0978     YY     -11.9215
        XZ       0.0026     YZ      -0.0243     ZZ     -11.8345
    Octopole Moments (Debye-Ang^2)
       XXX      -4.5220    XXY      -0.1653    XYY      -1.4377
       YYY       0.4849    XXZ       0.0043    XYZ      -0.0556
       YYZ       0.2668    XZZ      -1.2282    YZZ      -0.4747
       ZZZ      -0.2654
    Hexadecapole Moments (Debye-Ang^3)
      XXXX     -50.6219   XXXY      -0.0335   XXYY     -11.3995
      XYYY       0.7622   YYYY     -17.1506   XXXZ       0.0088
      XXYZ      -0.0850   XYYZ       0.2987   YYYZ       0.0333
      XXZZ     -11.0804   XYZZ      -0.4581   YYZZ      -5.7812
      XZZZ      -0.2959   YZZZ      -0.0231   ZZZZ     -17.1775
 -----------------------------------------------------------------
 Eng[-2,-2,0,0] = -1.39728621532431e+02
 points done 4/468
 CoordNormalMode -3 , 0 , 0 , 0
 ----------------------------------------------------------------
             Standard Nuclear Orientation (Angstroms)
    I     Atom           X                Y                Z
 ----------------------------------------------------------------
    1      C       0.6206989892    -0.0000331016     0.0074820309
    2      H       0.9982646076     1.0161670748     0.1561240820
    3      F      -0.7438794558     0.0001655719    -0.0027410821
    4      H       1.0200900768    -0.6632924592     0.7795938535
    5      H       0.9530167254    -0.3536131372    -0.9720591483
 ----------------------------------------------------------------
 Nuclear Repulsion Energy =          37.62737563 hartrees
 There are        9 alpha and        9 beta electrons

                       Distance Matrix (Angstroms)
             C (  1)   H (  2)   F (  3)   H (  4)
   H (  2)  1.094218
   F (  3)  1.364617  2.023008
   H (  4)  1.093427  1.791585  2.040542
   H (  5)  1.093140  1.775146  1.985999  1.780081
 
 Requested basis set is def2-TZVP
 There are 34 shells and 80 basis functions
 A cutoff of  1.0D-10 yielded    593 shell pairs
 There are      3347 function pairs (      4270 Cartesian)
 Smallest overlap matrix eigenvalue = 1.98E-03
 Guess MOs from SCF MO coefficient file

 -----------------------------------------------------------------------
  General SCF calculation program by
  Eric Jon Sundstrom, Paul Horn, Yuezhi Mao, Dmitri Zuev, Alec White,
  David Stuck, Shaama M.S., Shane Yost, Joonho Lee, David Small,
  Daniel Levine, Susi Lehtola, Hugh Burton, Evgeny Epifanovsky
 -----------------------------------------------------------------------
 Exchange:     0.2700 Hartree-Fock + 1.0000 M06
 Correlation:  1.0000 M06
 Using SG-3 standard quadrature grid
 using 4 threads for integral computing
 -------------------------------------------------------
 OpenMP Integral computing Module                
 Release: version 2.0, May 2017, Q-Chem Inc. Pleasanton 
 -------------------------------------------------------
 A restricted SCF calculation will be
 performed using DIIS
 SCF converges when DIIS error is below 1.0e-07
 ---------------------------------------
  Cycle       Energy         DIIS error
 ---------------------------------------
    1    -139.7288761213      9.21e-04  
    2    -139.7296397340      9.91e-05  
    3    -139.7296499564      5.62e-05  
    4    -139.7296514925      3.01e-05  
    5    -139.7296519552      6.32e-06  
    6    -139.7296519774      1.14e-06  
    7    -139.7296519782      1.18e-07  
    8    -139.7296519777      1.68e-08  Convergence criterion met
 ---------------------------------------
 SCF time:   CPU 10.12s  wall 3.00s 
 SCF   energy in the final basis set =     -139.7296519777
 Total energy in the final basis set =     -139.7296519777
 
 --------------------------------------------------------------
 
                    Orbital Energies (a.u.)
 --------------------------------------------------------------
 
 Alpha MOs
 -- Occupied --
-24.7562 -10.3096  -1.2346  -0.7133  -0.5149  -0.5006  -0.5000  -0.3634
 -0.3598
 -- Virtual --
  0.0481   0.0803   0.1045   0.1049   0.2063   0.2111   0.2962   0.3216
  0.4048   0.4057   0.4305   0.5446   0.5898   0.5918   0.7287   0.7331
  0.8691   0.8719   0.9102   1.0007   1.3854   1.4027   1.4051   1.4823
  1.6238   1.6709   1.6764   1.8471   1.8533   1.8740   2.2026   2.2161
  2.2214   2.2329   2.2410   2.3893   2.4614   2.4646   2.6806   2.7087
  2.8314   2.9035   2.9074   3.1988   3.2013   3.2445   3.2594   3.3965
  3.4057   3.5021   3.6932   3.7007   3.8559   3.9641   3.9840   4.1006
  5.0444   6.9205   6.9222   7.0092   7.0131   7.2743   7.2752   7.3326
  8.4482   8.4527   8.8378   8.8469   9.0755  22.2049  56.9398
 --------------------------------------------------------------
 
          Ground-State Mulliken Net Atomic Charges

     Atom                 Charge (a.u.)
  ----------------------------------------
      1 C                     0.036555
      2 H                     0.080140
      3 F                    -0.275474
      4 H                     0.079293
      5 H                     0.079487
  ----------------------------------------
  Sum of atomic charges =     0.000000

 -----------------------------------------------------------------
                    Cartesian Multipole Moments
 -----------------------------------------------------------------
    Charge (ESU x 10^10)
                -0.0000
    Dipole Moment (Debye)
         X       1.7170      Y      -0.0067      Z       0.0124
       Tot       1.7171
    Quadrupole Moments (Debye-Ang)
        XX     -12.4196     XY      -0.0051     YY     -11.8555
        XZ       0.0480     YZ      -0.0272     ZZ     -11.8874
    Octopole Moments (Debye-Ang^2)
       XXX      -4.5248    XXY      -0.0075    XYY      -1.2905
       YYY       0.4623    XXZ       0.0825    XYZ      -0.0556
       YYZ       0.2631    XZZ      -1.3599    YZZ      -0.4826
[...]
 VCI[4] |  0  0  1  1  0  0  0  2  0 >    8769.01 
 VCI[4] |  0  1  0  1  0  0  0  2  0 >    8774.41 
 VCI[4] |  0  2  0  0  0  0  1  1  0 >    8777.12 
 VCI[4] |  0  0  1  0  1  0  0  0  2 >    8785.88 
 VCI[4] |  0  1  0  0  0  1  0  0  2 >    8793.61 
 VCI[4] |  1  0  0  1  0  0  2  0  0 >    8800.02 
 VCI[4] |  0  0  1  0  0  1  0  2  0 >    8801.92 
 VCI[4] |  0  1  1  0  0  0  0  0  2 >    8808.09 
 VCI[4] |  1  0  0  0  1  0  2  0  0 >    8810.78 
 VCI[4] |  0  1  0  0  1  0  0  0  2 >    8810.95 
 VCI[4] |  0  2  0  0  0  0  0  0  2 >    8815.91 
 VCI[4] |  1  0  0  0  0  1  2  0  0 >    8822.21 
 VCI[4] |  1  0  0  1  0  0  0  2  0 >    8830.09 
 VCI[4] |  1  0  0  1  0  0  0  2  0 >    8835.71 
 VCI[4] |  1  0  1  0  0  0  1  0  1 >    8837.66 
 VCI[4] |  0  0  0  0  0  0  3  0  0 >    8845.56 
 VCI[4] |  0  0  1  1  0  0  0  1  1 >    8848.09 
 VCI[4] |  1  0  0  0  0  1  0  2  0 >    8852.50 
 VCI[4] |  0  1  0  1  0  0  0  1  1 >    8856.69 
 VCI[4] |  0  0  0  0  0  0  3  0  0 >    8858.36 
 VCI[4] |  1  0  0  0  1  0  0  0  2 >    8861.70 
 VCI[4] |  1  1  0  0  0  0  1  1  0 >    8861.87 
 VCI[4] |  0  0  1  0  1  0  0  1  1 >    8867.11 
 VCI[4] |  0  1  0  0  0  1  0  1  1 >    8877.27 
 VCI[4] |  0  1  0  1  0  0  1  1  0 >    8877.91 
 VCI[4] |  1  0  1  0  0  0  0  2  0 >    8881.23 
 VCI[4] |  0  0  1  0  0  1  0  1  1 >    8882.35 
 VCI[4] |  0  1  0  0  1  0  0  1  1 >    8895.52 
 VCI[4] |  0  0  1  1  0  0  1  1  0 >    8897.92 
 VCI[4] |  1  1  0  0  0  0  0  0  2 >    8905.37 
 VCI[4] |  1  0  0  1  0  0  0  1  1 >    8906.40 
 VCI[4] |  0  0  0  0  0  0  1  2  0 >    8907.89 
 VCI[4] |  0  1  0  0  1  0  1  0  1 >    8909.40 
 VCI[4] |  0  0  1  0  1  0  1  1  0 >    8917.32 
 VCI[4] |  0  1  0  0  1  0  1  1  0 >    8920.30 
 VCI[4] |  1  0  0  0  1  0  0  1  1 >    8928.19 
 VCI[4] |  1  0  0  0  0  1  0  1  1 >    8938.05 
 VCI[4] |  0  0  1  0  0  1  1  1  0 >    8944.27 
 VCI[4] |  0  0  0  0  0  0  0  3  0 >    8961.30 
 VCI[4] |  0  0  0  0  0  0  2  0  1 >    8968.18 
 VCI[4] |  2  0  0  0  0  0  1  1  0 >    8974.30 
 VCI[4] |  1  0  0  1  0  0  1  1  0 >    8978.32 
 VCI[4] |  0  0  0  0  0  0  0  2  1 >    8999.62 
 VCI[4] |  1  0  0  0  1  0  1  1  0 >    9001.14 
 VCI[4] |  0  0  0  1  0  1  2  0  0 >    9009.94 
 VCI[4] |  0  0  0  2  0  0  0  0  2 >    9014.62 
 VCI[4] |  2  0  0  0  0  0  2  0  0 >    9017.44 
 VCI[4] |  1  0  0  0  0  1  1  1  0 >    9019.50 
 VCI[4] |  0  0  0  1  1  0  2  0  0 >    9020.84 
 VCI[4] |  0  0  1  1  0  0  0  0  2 >    9021.26 
 VCI[4] |  0  0  0  1  1  0  2  0  0 >    9027.22 
 VCI[4] |  0  0  0  0  1  1  2  0  0 >    9028.81 
 VCI[4] |  0  0  0  0  1  1  2  0  0 >    9035.97 
 VCI[4] |  0  0  1  0  0  1  1  0  1 >    9041.12 
 VCI[4] |  0  0  0  1  1  0  0  0  2 >    9049.48 
 VCI[4] |  0  0  1  0  1  0  1  1  0 >    9049.92 
 VCI[4] |  0  0  0  0  0  0  0  1  2 >    9050.84 
 VCI[4] |  0  1  0  1  0  0  0  0  2 >    9055.28 
 VCI[4] |  0  0  0  1  0  1  0  2  0 >    9058.53 
 VCI[4] |  0  1  0  0  0  1  1  1  0 >    9062.12 
 VCI[4] |  0  0  0  0  0  2  0  0  2 >    9065.90 
 VCI[4] |  0  0  0  0  0  0  0  3  0 >    9074.56 
 VCI[4] |  0  1  0  0  1  0  1  1  0 >    9078.19 
 VCI[4] |  0  0  0  0  1  1  0  0  2 >    9078.30 
 VCI[4] |  0  0  1  0  1  0  0  0  2 >    9085.59 
 VCI[4] |  0  0  0  0  2  0  0  2  0 >    9086.87 
 VCI[4] |  0  0  1  0  0  1  0  2  0 >    9093.44 
 VCI[4] |  0  0  1  1  0  0  0  2  0 >    9097.53 
 VCI[4] |  0  0  0  0  2  0  2  0  0 >    9102.33 
 VCI[4] |  0  1  0  0  0  1  0  0  2 >    9103.68 
 VCI[4] |  0  1  0  1  0  0  0  2  0 >    9110.09 
 VCI[4] |  0  0  0  2  0  0  0  1  1 >    9121.78 
 VCI[4] |  1  0  0  1  0  0  1  0  1 >    9125.13 
 VCI[4] |  0  0  0  1  0  1  0  1  1 >    9125.96 
 VCI[4] |  0  0  0  1  1  0  0  1  1 >    9135.49 
 VCI[4] |  1  0  0  0  0  1  1  0  1 >    9137.48 
 VCI[4] |  0  1  0  0  1  0  0  0  2 >    9140.42 
 VCI[4] |  0  0  0  0  0  2  1  0  1 >    9142.67 
 VCI[4] |  0  0  0  0  0  2  0  1  1 >    9147.34 
 VCI[4] |  1  0  0  0  1  0  1  1  0 >    9149.16 
 VCI[4] |  0  0  0  0  1  1  0  1  1 >    9155.73 
 VCI[4] |  0  0  0  0  2  0  0  1  1 >    9174.02 
 VCI[4] |  0  0  0  2  0  0  1  1  0 >    9179.07 
 VCI[4] |  1  0  0  0  0  1  0  2  0 >    9180.92 
 VCI[4] |  0  0  0  1  1  0  1  1  0 >    9181.79 
 VCI[4] |  1  0  0  1  0  0  1  1  0 >    9190.81 
 VCI[4] |  0  0  0  1  0  1  1  1  0 >    9194.81 
 VCI[4] |  1  0  0  0  1  0  0  0  2 >    9198.75 
 VCI[4] |  0  0  0  0  1  1  1  1  0 >    9213.45 
 VCI[4] |  0  0  0  0  2  0  1  0  1 >    9221.37 
 VCI[4] |  0  0  0  0  0  2  1  1  0 >    9255.10 
 VCI[4] |  0  0  0  0  0  0  1  1  1 >    9266.90 
 VCI[4] |  0  0  0  2  0  0  1  0  1 >    9314.97 
 VCI[4] |  0  0  0  1  0  1  1  0  1 >    9319.26 
 VCI[4] |  0  0  0  0  2  0  1  1  0 >    9339.82 
 VCI[4] |  0  0  0  0  1  1  1  1  0 >    9344.37 
 VCI[4] |  0  0  0  1  1  0  1  0  1 >    9349.60 
 VCI[4] |  0  0  0  0  0  2  0  0  2 >    9371.17 
 VCI[4] |  0  0  0  1  0  1  1  1  0 >    9384.44 
 VCI[4] |  0  0  0  0  1  1  0  0  2 >    9387.70 
 VCI[4] |  0  0  0  1  1  0  0  2  0 >    9394.94 
 VCI[4] |  0  0  0  0  0  2  0  2  0 >    9401.71 
 VCI[4] |  0  0  0  2  0  0  1  1  0 >    9417.72 
 VCI[4] |  0  0  0  0  2  0  0  0  2 >    9441.70 
 VCI[4] |  0  1  0  0  0  0  3  0  0 >   10537.84 
 VCI[4] |  0  0  1  0  0  0  3  0  0 >   10542.38 
 VCI[4] |  0  0  1  0  0  0  0  0  3 >   10627.87 
 VCI[4] |  0  1  0  0  0  0  0  3  0 >   10632.70 
 VCI[4] |  1  0  0  0  0  0  0  3  0 >   10665.18 
 VCI[4] |  0  1  0  0  0  0  0  2  1 >   10686.07 
 VCI[4] |  0  0  1  0  0  0  0  1  2 >   10691.18 
 VCI[4] |  0  0  1  0  0  0  0  2  1 >   10691.84 
 VCI[4] |  0  1  0  0  0  0  0  1  2 >   10698.95 
 VCI[4] |  1  0  0  0  0  0  0  0  3 >   10737.69 
 VCI[4] |  1  0  0  0  0  0  0  1  2 >   10803.64 
 VCI[4] |  1  0  0  0  0  0  0  2  1 >   10804.13 
 VCI[4] |  0  0  1  0  0  0  3  0  0 >   10810.18 
 VCI[4] |  0  1  0  0  0  0  3  0  0 >   10816.52 
 VCI[4] |  0  0  0  1  0  0  0  0  3 >   10824.40 
 VCI[4] |  0  0  0  0  1  0  0  3  0 >   10834.93 
 VCI[4] |  0  0  0  0  0  1  3  0  0 >   10846.16 
 VCI[4] |  0  0  1  0  0  0  1  2  0 >   10878.38 
 VCI[4] |  0  0  1  0  0  0  1  2  0 >   10882.88 
 VCI[4] |  0  0  0  1  0  0  0  0  3 >   10896.13 
 VCI[4] |  0  0  0  0  0  1  0  0  3 >   10917.59 
 VCI[4] |  0  0  0  0  0  1  0  0  3 >   10927.08 
 VCI[4] |  0  0  0  1  0  0  0  2  1 >   10962.82 
 VCI[4] |  0  0  0  1  0  0  0  1  2 >   10965.52 
 VCI[4] |  1  0  0  0  0  0  3  0  0 >   10973.76 
 VCI[4] |  0  0  0  0  0  1  0  1  2 >   10981.24 
 VCI[4] |  0  0  0  0  1  0  0  2  1 >   10981.75 
 VCI[4] |  0  0  0  0  1  0  0  1  2 >   10991.41 
 VCI[4] |  0  0  0  0  0  1  0  2  1 >   10992.09 
 VCI[4] |  0  0  1  0  0  0  1  1  1 >   11031.21 
 VCI[4] |  1  0  0  0  0  0  1  2  0 >   11040.32 
 VCI[4] |  0  1  0  0  0  0  1  1  1 >   11060.93 
 VCI[4] |  0  0  0  1  0  0  3  0  0 >   11118.01 
 VCI[4] |  0  0  0  0  0  1  3  0  0 >   11125.54 
 VCI[4] |  0  0  0  0  1  0  3  0  0 >   11136.13 
 VCI[4] |  0  1  0  0  0  0  2  1  0 >   11160.67 
 VCI[4] |  0  0  0  1  0  0  1  2  0 >   11185.03 
 VCI[4] |  0  0  0  0  0  1  1  2  0 >   11193.06 
 VCI[4] |  1  0  0  0  0  0  1  1  1 >   11197.08 
 VCI[4] |  0  0  0  0  1  0  1  2  0 >   11202.69 
 VCI[4] |  0  0  1  0  0  0  2  1  0 >   11209.86 
 VCI[4] |  0  0  0  0  0  1  1  1  1 >   11342.08 
 VCI[4] |  0  0  0  1  0  0  1  1  1 >   11351.36 
 VCI[4] |  0  0  0  0  1  0  1  1  1 >   11362.89 
 VCI[4] |  1  0  0  0  0  0  2  1  0 >   11366.20 
 VCI[4] |  0  0  1  0  0  0  1  0  2 >   11462.67 
 VCI[4] |  0  0  0  1  0  0  2  1  0 >   11477.34 
 VCI[4] |  0  0  0  0  1  0  2  1  0 >   11505.88 
 VCI[4] |  0  1  0  0  0  0  2  1  0 >   11515.11 
 VCI[4] |  0  0  1  0  0  0  1  2  0 >   11525.93 
 VCI[4] |  0  0  0  0  0  1  2  1  0 >   11532.50 
 VCI[4] |  0  1  0  0  0  0  1  0  2 >   11552.40 
 VCI[4] |  1  0  0  0  0  0  1  0  2 >   11665.54 
 VCI[4] |  1  0  0  0  0  0  1  2  0 >   11714.71 
 VCI[4] |  0  0  0  1  0  0  1  0  2 >   11780.91 
 VCI[4] |  0  0  0  0  0  1  1  0  2 >   11787.03 
 VCI[4] |  0  0  0  0  1  0  1  2  0 >   11815.12 
 VCI[4] |  0  0  0  0  0  1  1  2  0 >   11841.73 
 VCI[4] |  0  0  0  0  1  0  1  0  2 >   11865.54 
 VCI[4] |  0  0  0  1  0  0  1  2  0 >   11890.35 
 VCI[4] |  0  0  0  0  0  0  0  4  0 >   12830.24 
 VCI[4] |  0  0  0  0  0  0  0  0  4 >   12842.27 
 VCI[4] |  0  0  0  0  0  0  0  1  3 >   12929.67 
 VCI[4] |  0  0  0  0  0  0  0  2  2 >   12995.48 
 VCI[4] |  0  0  0  0  0  0  0  3  1 >   13016.77 
 VCI[4] |  0  0  0  0  0  0  4  0  0 >   13249.53 
 VCI[4] |  0  0  0  0  0  0  3  1  0 >   13465.25 
 VCI[4] |  0  0  0  0  0  0  1  3  0 >   13488.23 
 VCI[4] |  0  0  0  0  0  0  3  1  0 >   13646.88 
 VCI[4] |  0  0  0  0  0  0  4  0  0 >   13764.20 
 VCI[4] |  0  0  0  0  0  0  1  2  1 >   13842.49 
 VCI[4] |  0  0  0  0  0  0  2  1  1 >   14084.85 
 VCI[4] |  0  0  0  0  0  0  1  2  1 >   14348.01 
 VCI[4] |  0  0  0  0  0  0  1  0  3 >   14877.89 
 VCI[4] |  0  0  0  0  0  0  2  2  0 >   14941.97 
 -----------------------------------------------------------
 VCI[4] construnction time:  CPU    8.96 s  wall    8.96 s
 -----------------------------------------------------------
 VCI time:                    CPU   10.43 s  wall    9.89 s
 ----------------------------------------------------------------
             Standard Nuclear Orientation (Angstroms)
    I     Atom           X                Y                Z
 ----------------------------------------------------------------
    1      C       0.6207857877     0.0001201394     0.0000486928
    2      H       0.9916354270     1.0145450467     0.1730039219
    3      F      -0.7438654930     0.0001298242     0.0000798318
    4      H       0.9897525690    -0.6586830655     0.7901268734
    5      H       0.9886867147    -0.3577512356    -0.9641414379
 ----------------------------------------------------------------
 Nuclear Repulsion Energy =          37.63229990 hartrees
 There are        9 alpha and        9 beta electrons

 = Finishing finite difference calculation for ANHAR =
 =====================================================
 =====================================================
 Requested basis set is def2-TZVP
 There are 34 shells and 80 basis functions
 **********************************************************************
 **                                                                  **
 **                       VIBRATIONAL ANALYSIS                       **
 **                       --------------------                       **
 **                                                                  **
 **        VIBRATIONAL FREQUENCIES (CM**-1) AND NORMAL MODES         **
 **     FORCE CONSTANTS (mDYN/ANGSTROM) AND REDUCED MASSES (AMU)     **
 **                  INFRARED INTENSITIES (KM/MOL)                   **
 **                                                                  **
 **********************************************************************
 

 Mode:                 1                      2                      3
 Frequency:      1119.62                1191.56                1194.94
 Force Cnst:      5.7842                 1.0649                 1.0735
 Red. Mass:       7.8316                 1.2730                 1.2761
 IR Active:          YES                    YES                    YES
 IR Intens:      123.459                  1.394                  1.272
 Raman Active:       YES                    YES                    YES
               X      Y      Z        X      Y      Z        X      Y      Z
 C          0.571  0.004 -0.000   -0.003  0.139  0.003    0.002  0.003 -0.140
 H          0.427  0.026  0.007    0.723 -0.132  0.017   -0.125 -0.031  0.319
 F         -0.425 -0.002  0.000    0.002 -0.054 -0.001    0.000 -0.001  0.053
 H          0.390 -0.027  0.018   -0.468 -0.238 -0.096   -0.573  0.087  0.199
 H          0.396 -0.021 -0.025   -0.265 -0.280  0.060    0.674 -0.078  0.150
 TransDip   0.356  0.000  0.000   -0.004  0.038 -0.000    0.001 -0.000 -0.036

 Mode:                 4                      5                      6
 Frequency:      1460.86                1475.43                1484.26
 Force Cnst:      1.3123                 1.3792                 1.4373
 Red. Mass:       1.0437                 1.0753                 1.1073
 IR Active:          YES                    YES                    YES
 IR Intens:        4.170                  3.963                  3.529
 Raman Active:       YES                    YES                    YES
               X      Y      Z        X      Y      Z        X      Y      Z
 C          0.010  0.025 -0.049   -0.061 -0.040 -0.024   -0.087  0.032  0.009
 H         -0.133 -0.058  0.682    0.571 -0.280  0.156    0.211 -0.073 -0.074
 F          0.001  0.003 -0.009   -0.009 -0.007 -0.003   -0.012  0.005  0.002
 H          0.300  0.215  0.009    0.238  0.513  0.301    0.497 -0.174 -0.418
 H         -0.308 -0.525  0.058    0.082  0.369 -0.111    0.558 -0.236  0.342
 TransDip   0.005 -0.027  0.059   -0.033  0.048  0.025   -0.047 -0.035 -0.015

 Mode:                 7                      8                      9
 Frequency:      3014.33                3098.34                3108.28
 Force Cnst:      5.5131                 6.2505                 6.2948
 Red. Mass:       1.0298                 1.1051                 1.1058
 IR Active:          YES                    YES                    YES
 IR Intens:       34.291                 32.633                 31.960
 Raman Active:       YES                    YES                    YES
               X      Y      Z        X      Y      Z        X      Y      Z
 C         -0.044  0.001 -0.007    0.002  0.077 -0.054    0.002 -0.055 -0.077
 H          0.195  0.542  0.093   -0.198 -0.553 -0.113    0.179  0.508  0.071
 F         -0.003 -0.000  0.000    0.000 -0.000  0.000    0.000  0.000  0.000
 H          0.204 -0.376  0.448    0.244 -0.457  0.554    0.055 -0.118  0.114
 H          0.174 -0.174 -0.463   -0.078  0.099  0.204   -0.266  0.266  0.724
 TransDip  -0.187  0.005 -0.016    0.008  0.148 -0.107    0.010 -0.105 -0.147

 ======================================================================
                     VIBRATIONAL ANHARMONIC ANALYSIS                   
                     -------------------------------                   
 WARNING! Low frequency modes less than  300 are treated as rotation
 No anharmonic shift applied, please see IGNORE_LOW_FREQ for more details.
 WARNING! THESE RESULTS ARE CALCULATED WTIHOUT Eta_ijk AND Eta_ijkl
                                                                       
 TOSH[ 1]  1093.99    VPT2[ 1]  1092.51
 TOSH[ 2]  1180.12    VPT2[ 2]  1179.97
 TOSH[ 3]  1173.89    VPT2[ 3]  1173.83
 TOSH[ 4]  1427.09    VPT2[ 4]  1426.46
 TOSH[ 5]  1446.81    VPT2[ 5]  1445.88
 TOSH[ 6]  1450.10    VPT2[ 6]  1449.02
 TOSH[ 7]  2925.63    VPT2[ 7]  2947.32
 TOSH[ 8]  2935.53    VPT2[ 8]  2929.41
 TOSH[ 9]  2941.18    VPT2[ 9]  2937.52

 VCI[ 1]mode[ 1]=  1.00 quanta * 1207.77
 VCI[ 1]mode[ 2]=  0.95 quanta * 1229.25
 VCI[ 1]mode[ 3]=  0.95 quanta * 1221.48
 VCI[ 1]mode[ 4]=  0.99 quanta * 1479.20
 VCI[ 1]mode[ 5]=  0.78 quanta * 1496.07
 VCI[ 1]mode[ 6]=  0.79 quanta * 1505.80
 VCI[ 1]mode[ 7]=  0.82 quanta * 3145.35
 VCI[ 1]mode[ 8]=  0.75 quanta * 3201.44
 VCI[ 1]mode[ 9]=  0.67 quanta * 3222.16

 VCI[ 2]mode[ 1]=  0.97 quanta * 1105.51
 VCI[ 2]mode[ 2]=  0.94 quanta * 1184.63
 VCI[ 2]mode[ 3]=  0.94 quanta * 1177.14
 VCI[ 2]mode[ 4]=  0.98 quanta * 1429.39
 VCI[ 2]mode[ 5]=  0.79 quanta * 1445.73
 VCI[ 2]mode[ 6]=  0.80 quanta * 1455.56
 VCI[ 2]mode[ 7]=  0.63 quanta * 2863.66
 VCI[ 2]mode[ 8]=  0.69 quanta * 2987.95
 VCI[ 2]mode[ 9]=  0.62 quanta * 2987.95

 VCI[ 3]mode[ 1]=  0.96 quanta * 1127.38
 VCI[ 3]mode[ 2]=  0.95 quanta * 1210.53
 VCI[ 3]mode[ 3]=  0.95 quanta * 1202.67
 VCI[ 3]mode[ 4]=  0.98 quanta * 1454.52
 VCI[ 3]mode[ 5]=  0.78 quanta * 1470.57
 VCI[ 3]mode[ 6]=  0.79 quanta * 1480.71
 VCI[ 3]mode[ 7]=  0.49 quanta * 2862.15 +  0.48 quanta * 3024.13
 VCI[ 3]mode[ 8]=  0.73 quanta * 2999.63
 VCI[ 3]mode[ 9]=  0.60 quanta * 3024.13

 VCI[ 4]mode[ 1]=  0.96 quanta * 1098.58
 VCI[ 4]mode[ 2]=  0.95 quanta * 1180.12
 VCI[ 4]mode[ 3]=  0.95 quanta * 1172.12
 VCI[ 4]mode[ 4]=  0.98 quanta * 1425.48
 VCI[ 4]mode[ 5]=  0.77 quanta * 1441.44
 VCI[ 4]mode[ 6]=  0.78 quanta * 1451.51
 VCI[ 4]mode[ 7]=  0.66 quanta * 2836.43
 VCI[ 4]mode[ 8]=  0.64 quanta * 2956.46
 VCI[ 4]mode[ 9]=  0.62 quanta * 2956.46

 ======================================================================

 STANDARD THERMODYNAMIC QUANTITIES AT   298.15 K  AND     1.00 ATM

   This Molecule has  0 Imaginary Frequencies
   Zero point vibrational energy:       24.514 kcal/mol

   Atom    1 Element C  Has Mass   12.00000
   Atom    2 Element H  Has Mass    1.00783
   Atom    3 Element F  Has Mass   18.99840
   Atom    4 Element H  Has Mass    1.00783
   Atom    5 Element H  Has Mass    1.00783
   Molecular Mass:    34.021890 amu
   Principal axes and moments of inertia in amu*Bohr^2:
                             1           2           3
    Eigenvalues --       11.42673    68.90929    68.93575
          X               1.00000     0.00002     0.00002
          Y              -0.00002     1.00000    -0.00001
          Z              -0.00002     0.00001     1.00000
   Rotational Symmetry Number is   1
   The Molecule is an Asymmetric Top
   Translational Enthalpy:        0.889 kcal/mol
   Rotational Enthalpy:           0.889 kcal/mol
   Vibrational Enthalpy:         24.560 kcal/mol
   gas constant (RT):             0.592 kcal/mol
   Translational Entropy:        36.504  cal/mol.K
   Rotational Entropy:           18.635  cal/mol.K
   Vibrational Entropy:           0.182  cal/mol.K

   Total Enthalpy:               26.930 kcal/mol
   Total Entropy:                55.321  cal/mol.K

 ======================================================================

 STANDARD THERMODYNAMIC QUANTITIES FOR ANHARMONIC VIBRATION -- TOSH

   Zero point vibrational energy:       23.694 kcal/mol

   Vibrational Enthalpy:         23.745 kcal/mol
   Vibrational Entropy:           0.200  cal/mol.K

   Total Enthalpy:               26.115 kcal/mol
   Total Entropy:                55.339  cal/mol.K

 ======================================================================

 STANDARD THERMODYNAMIC QUANTITIES FOR ANHARMONIC VIBRATION -- VPT2

   Zero point vibrational energy:       23.705 kcal/mol

   Vibrational Enthalpy:         23.756 kcal/mol
   Vibrational Entropy:           0.201  cal/mol.K

   Total Enthalpy:               26.126 kcal/mol
   Total Entropy:                55.340  cal/mol.K

 ======================================================================

 STANDARD THERMODYNAMIC QUANTITIES FOR ANHARMONIC VIBRATION -- VCI 4

   Zero point vibrational energy:       23.615 kcal/mol

   Vibrational Enthalpy:         23.665 kcal/mol
   Vibrational Entropy:           0.200  cal/mol.K

   Total Enthalpy:               26.035 kcal/mol
   Total Entropy:                55.339  cal/mol.K

 ======================================================================
 
Archival summary:
1\1\gadi-cpu-clx-0263.gadi.nci.org.au\FREQ\ProcedureUnspecified\BasisUnspecified\113\pk8622\TueJun2314:19:182020TueJun2314:19:182020\0\\#,FREQ,ProcedureUnspecified,BasisUnspecified,\\0,1\C\H,1,1.09228\H,1,1.09288,2,109.083\H,1,1.09385,2,109.222,3,119.389,0\F,1,1.36465,2,109.684,3,-120.209,0\\\@

 Total job time:  1296.73s(wall), 5012.25s(cpu) 
 Tue Jun 23 14:19:18 2020

        *************************************************************
        *                                                           *
        *  Thank you very much for using Q-Chem.  Have a nice day.  *
        *                                                           *
        *************************************************************


