                  Welcome to Q-Chem
     A Quantum Leap Into The Future Of Chemistry


 Q-Chem 5.2 (devel), Q-Chem, Inc., Pleasanton, CA (2019)

 Yihan Shao,  Zhengting Gan,  E. Epifanovsky,  A. T. B. Gilbert,  M. Wormit,  
 J. Kussmann,  A. W. Lange,  A. Behn,  Jia Deng,  Xintian Feng,  D. Ghosh,  
 M. Goldey,  P. R. Horn,  L. D. Jacobson,  I. Kaliman,  T. Kus,  A. Landau,  
 Jie Liu,  E. I. Proynov,  R. M. Richard,  R. P. Steele,  E. J. Sundstrom,  
 H. L. Woodcock III,  P. M. Zimmerman,  D. Zuev,  B. Albrecht,  E. Alguire,  
 S. A. Baeppler,  D. Barton,  Z. Benda,  Y. A. Bernard,  E. J. Berquist,  
 K. B. Bravaya,  H. Burton,  D. Casanova,  Chun-Min Chang,  Yunqing Chen,  
 A. Chien,  K. D. Closser,  M. P. Coons,  S. Coriani,  S. Dasgupta,  
 A. L. Dempwolff,  M. Diedenhofen,  Hainam Do,  R. G. Edgar,  Po-Tung Fang,  
 S. Faraji,  S. Fatehi,  Qingguo Feng,  K. D. Fenk,  J. Fosso-Tande,  
 J. Gayvert,  Qinghui Ge,  A. Ghysels,  G. Gidofalvi,  J. Gomes,  
 J. Gonthier,  A. Gunina,  D. Hait,  M. W. D. Hanson-Heine,  
 P. H. P. Harbach,  A. W. Hauser,  M. F. Herbst,  J. E. Herr,  
 E. G. Hohenstein,  Z. C. Holden,  Kerwin Hui,  B. C. Huynh,  T.-C. Jagau,  
 Hyunjun Ji,  B. Kaduk,  K. Khistyaev,  Jaehoon Kim,  P. Klunzinger,  K. Koh,  
 D. Kosenkov,  L. Koulias,  T. Kowalczyk,  C. M. Krauter,  A. Kunitsa,  
 Ka Un Lao,  A. Laurent,  K. V. Lawler,  Joonho Lee,  D. Lefrancois,  
 S. Lehtola,  D. S. Levine,  Yi-Pei Li,  You-Sheng Lin,  Fenglai Liu,  
 E. Livshits,  A. Luenser,  P. Manohar,  E. Mansoor,  S. F. Manzer,  
 Shan-Ping Mao,  Yuezhi Mao,  N. Mardirossian,  A. V. Marenich,  
 T. Markovich,  L. A. Martinez-Martinez,  S. A. Maurer,  N. J. Mayhall,  
 S. C. McKenzie,  J.-M. Mewes,  P. Morgante,  A. F. Morrison,  
 J. W. Mullinax,  K. Nanda,  T. S. Nguyen-Beck,  R. Olivares-Amaya,  
 J. A. Parkhill,  Zheng Pei,  T. M. Perrine,  F. Plasser,  P. Pokhilko,  
 S. Prager,  A. Prociuk,  E. Ramos,  D. R. Rehn,  F. Rob,  M. Scheurer,  
 M. Schneider,  N. Sergueev,  S. M. Sharada,  S. Sharma,  D. W. Small,  
 T. Stauch,  T. Stein,  Yu-Chuan Su,  A. J. W. Thom,  A. Tkatchenko,  
 T. Tsuchimochi,  N. M. Tubman,  L. Vogt,  M. L. Vidal,  O. Vydrov,  
 M. A. Watson,  J. Wenzel,  M. de Wergifosse,  T. A. Wesolowski,  A. White,  
 J. Witte,  A. Yamada,  Jun Yang,  K. Yao,  S. Yeganeh,  S. R. Yost,  
 Zhi-Qiang You,  A. Zech,  Igor Ying Zhang,  Xing Zhang,  Yan Zhao,  
 Ying Zhu,  B. R. Brooks,  G. K. L. Chan,  C. J. Cramer,  M. S. Gordon,  
 W. J. Hehre,  A. Klamt,  M. W. Schmidt,  C. D. Sherrill,  D. G. Truhlar,  
 A. Aspuru-Guzik,  R. Baer,  A. T. Bell,  N. A. Besley,  Jeng-Da Chai,  
 A. E. DePrince, III,  R. A. DiStasio Jr.,  A. Dreuw,  B. D. Dunietz,  
 T. R. Furlani,  Chao-Ping Hsu,  Yousung Jung,  Jing Kong,  D. S. Lambrecht,  
 WanZhen Liang,  C. Ochsenfeld,  V. A. Rassolov,  L. V. Slipchenko,  
 J. E. Subotnik,  T. Van Voorhis,  J. M. Herbert,  A. I. Krylov,  
 P. M. W. Gill,  M. Head-Gordon

 Contributors to earlier versions of Q-Chem not listed above: 
 R. D. Adamson,  B. Austin,  J. Baker,  G. J. O. Beran,  K. Brandhorst,  
 S. T. Brown,  E. F. C. Byrd,  A. K. Chakraborty,  C.-L. Cheng,  
 Siu Hung Chien,  D. M. Chipman,  D. L. Crittenden,  H. Dachsel,  
 R. J. Doerksen,  A. D. Dutoi,  L. Fusti-Molnar,  W. A. Goddard III,  
 A. Golubeva-Zadorozhnaya,  S. R. Gwaltney,  G. Hawkins,  A. Heyden,  
 S. Hirata,  G. Kedziora,  F. J. Keil,  C. Kelley,  Jihan Kim,  R. A. King,  
 R. Z. Khaliullin,  P. P. Korambath,  W. Kurlancheek,  A. M. Lee,  M. S. Lee,  
 S. V. Levchenko,  Ching Yeh Lin,  D. Liotard,  R. C. Lochan,  I. Lotan,  
 P. E. Maslen,  N. Nair,  D. P. O'Neill,  D. Neuhauser,  E. Neuscamman,  
 C. M. Oana,  R. Olson,  B. Peters,  R. Peverati,  P. A. Pieniazek,  
 Y. M. Rhee,  J. Ritchie,  M. A. Rohrdanz,  E. Rosta,  N. J. Russ,  
 H. F. Schaefer III,  N. E. Schultz,  N. Shenvi,  A. C. Simmonett,  A. Sodt,  
 D. Stuck,  K. S. Thanthiriwatte,  V. Vanovschi,  Tao Wang,  A. Warshel,  
 C. F. Williams,  Q. Wu,  X. Xu,  W. Zhang

 Please cite Q-Chem as follows:
 Y. Shao et al., Mol. Phys. 113, 184-215 (2015)
 DOI: 10.1080/00268976.2014.952696

 Q-Chem 5.2.0 for Intel X86 EM64T Linux

 Parts of Q-Chem use Armadillo 8.300.2 (Tropical Shenanigans).
 http://arma.sourceforge.net/

 Q-Chem begins on Tue Jun 23 13:44:03 2020  

Host: gadi-cpu-clx-0263.gadi.nci.org.au
0

     Scratch files written to /jobfs/7626483.gadi-pbs/qchem64480//
NAlpha2: 16
NElect   16
Mult     1

Checking the input file for inconsistencies... 	...done.

--------------------------------------------------------------
User input:
--------------------------------------------------------------
$comment
	QCHEM - Methanal
	Geometry optimization
	Anharmonic frequency analysis
$end

$molecule
0 1
C         -0.09593        1.46711       -0.00063
O         -0.50414        2.58940        0.27058
H         -0.54473        0.85573       -0.79970
H          0.74465        1.00141        0.53817

$end

$rem
	JOBTYPE	OPT
	METHOD	M06
	BASIS	def2-TZVP
	SCF_CONVERGENCE	7
$end

--------------------------------------------------------------
 Atom   1: (  0.5388599848,  0.0000031584,  0.0000000788)
         ->(  0.5388599848,  0.0000031584,  0.0000000000)
 Atom   2: ( -0.6857726590, -0.0000011287, -0.0000000192)
         ->( -0.6857726590, -0.0000011287,  0.0000000000)
 Atom   3: (  1.1265078769,  0.9318774869, -0.0000001597)
         ->(  1.1265078769,  0.9318774869,  0.0000000000)
 Atom   4: (  1.1265134869, -0.9318874080, -0.0000001597)
         ->(  1.1265134869, -0.9318874080,  0.0000000000)
 ----------------------------------------------------------------
             Standard Nuclear Orientation (Angstroms)
    I     Atom           X                Y                Z
 ----------------------------------------------------------------
    1      C       0.5388599848     0.0000031584     0.0000000000
    2      O      -0.6857726590    -0.0000011287     0.0000000000
    3      H       1.1265078769     0.9318774869     0.0000000000
    4      H       1.1265134869    -0.9318874080     0.0000000000
 ----------------------------------------------------------------
 Molecular Point Group                 Cs    NOp =  2
 Largest Abelian Subgroup              Cs    NOp =  2
 Nuclear Repulsion Energy =          30.94401835 hartrees
 There are        8 alpha and        8 beta electrons
 Requested basis set is def2-TZVP
 There are 30 shells and 74 basis functions

 Total QAlloc Memory Limit   2000 MB
 Mega-Array Size       188 MB
 MEM_STATIC part       192 MB
 A cutoff of  1.0D-10 yielded    464 shell pairs
 There are      2880 function pairs (      3743 Cartesian)
 Smallest overlap matrix eigenvalue = 1.56E-03

 Scale SEOQF with 1.000000e+00/1.000000e+00/1.000000e+00

 Standard Electronic Orientation quadrupole field applied
 Nucleus-field energy     =     0.0000000041 hartrees
 Guess from superposition of atomic densities
 Warning:  Energy on first SCF cycle will be non-variational
 SAD guess density has 16.000000 electrons

 -----------------------------------------------------------------------
  General SCF calculation program by
  Eric Jon Sundstrom, Paul Horn, Yuezhi Mao, Dmitri Zuev, Alec White,
  David Stuck, Shaama M.S., Shane Yost, Joonho Lee, David Small,
  Daniel Levine, Susi Lehtola, Hugh Burton, Evgeny Epifanovsky
 -----------------------------------------------------------------------
 Exchange:     0.2700 Hartree-Fock + 1.0000 M06
 Correlation:  1.0000 M06
 Using SG-3 standard quadrature grid
 using 4 threads for integral computing
 -------------------------------------------------------
 OpenMP Integral computing Module                
 Release: version 2.0, May 2017, Q-Chem Inc. Pleasanton 
 -------------------------------------------------------
 A restricted SCF calculation will be
 performed using DIIS
 SCF converges when DIIS error is below 1.0e-07
 ---------------------------------------
  Cycle       Energy         DIIS error
 ---------------------------------------
    1    -114.6191893063      5.92e-02  
    2    -114.4221228934      1.04e-02  
    3    -114.2218404540      2.23e-02  
    4    -114.4813010420      1.31e-03  
    5    -114.4821924664      6.15e-04  
    6    -114.4824130604      7.12e-05  
    7    -114.4824156279      1.07e-05  
    8    -114.4824156870      2.61e-06  
    9    -114.4824156908      4.35e-07  
   10    -114.4824156911      1.53e-08  Convergence criterion met
 ---------------------------------------
 SCF time:   CPU 9.90s  wall 2.00s 
 SCF   energy in the final basis set =     -114.4824156911
 Total energy in the final basis set =     -114.4824156911
 
 --------------------------------------------------------------
             Orbital Energies (a.u.) and Symmetries
 --------------------------------------------------------------
 
 Alpha MOs, Restricted
 -- Occupied --                  
-19.231 -10.343  -1.075  -0.655  -0.511  -0.469  -0.416  -0.290
  1 A'    2 A'    3 A'    4 A'    5 A'    6 A'    1 A"    7 A'                 
 -- Virtual --                   
 -0.053   0.053   0.106   0.111   0.208   0.212   0.259   0.377
  2 A"    8 A'    9 A'   10 A'   11 A'    3 A"   12 A'   13 A'                 
  0.405   0.410   0.455   0.510   0.575   0.590   0.679   0.777
 14 A'   15 A'   16 A'    4 A"    5 A"   17 A'   18 A'    6 A"                 
  0.796   0.923   1.029   1.284   1.341   1.441   1.446   1.472
 19 A'   20 A'   21 A'   22 A'    7 A"   23 A'    8 A"   24 A'                 
  1.559   1.628   1.734   1.890   1.935   1.939   1.989   2.138
 25 A'   26 A'    9 A"   10 A"   11 A"   27 A'   28 A'   29 A'                 
  2.280   2.382   2.474   2.530   2.611   2.841   2.914   2.929
 30 A'   31 A'   32 A'   33 A'   12 A"   13 A"   34 A'   14 A"                 
  2.948   2.990   3.023   3.114   3.125   3.195   3.513   3.615
 35 A'   36 A'   15 A"   37 A'   16 A"   38 A'   17 A"   39 A'                 
  3.631   3.789   3.973   4.250   5.171   5.178   5.463   5.575
 40 A'   41 A'   42 A'   43 A'   18 A"   44 A'   19 A"   45 A'                 
  5.984   6.163   6.198   6.339   6.409   6.772   6.813   6.994
 20 A"   46 A'   47 A'   21 A"   48 A'   22 A"   49 A'   50 A'                 
 22.342  43.458
 51 A'   52 A'                                                                 
 
 Beta MOs, Restricted
 -- Occupied --                  
-19.231 -10.343  -1.075  -0.655  -0.511  -0.469  -0.416  -0.290
  1 A'    2 A'    3 A'    4 A'    5 A'    6 A'    1 A"    7 A'                 
 -- Virtual --                   
 -0.053   0.053   0.106   0.111   0.208   0.212   0.259   0.377
  2 A"    8 A'    9 A'   10 A'   11 A'    3 A"   12 A'   13 A'                 
  0.405   0.410   0.455   0.510   0.575   0.590   0.679   0.777
 14 A'   15 A'   16 A'    4 A"    5 A"   17 A'   18 A'    6 A"                 
  0.796   0.923   1.029   1.284   1.341   1.441   1.446   1.472
 19 A'   20 A'   21 A'   22 A'    7 A"   23 A'    8 A"   24 A'                 
  1.559   1.628   1.734   1.890   1.935   1.939   1.989   2.138
 25 A'   26 A'    9 A"   10 A"   11 A"   27 A'   28 A'   29 A'                 
  2.280   2.382   2.474   2.530   2.611   2.841   2.914   2.929
 30 A'   31 A'   32 A'   33 A'   12 A"   13 A"   34 A'   14 A"                 
  2.948   2.990   3.023   3.114   3.125   3.195   3.513   3.615
 35 A'   36 A'   15 A"   37 A'   16 A"   38 A'   17 A"   39 A'                 
  3.631   3.789   3.973   4.250   5.171   5.178   5.463   5.575
 40 A'   41 A'   42 A'   43 A'   18 A"   44 A'   19 A"   45 A'                 
  5.984   6.163   6.198   6.339   6.409   6.772   6.813   6.994
 20 A"   46 A'   47 A'   21 A"   48 A'   22 A"   49 A'   50 A'                 
 22.342  43.458
 51 A'   52 A'                                                                 
 --------------------------------------------------------------
 
          Ground-State Mulliken Net Atomic Charges

     Atom                 Charge (a.u.)
  ----------------------------------------
      1 C                     0.202206
      2 O                    -0.335049
      3 H                     0.066423
      4 H                     0.066420
  ----------------------------------------
  Sum of atomic charges =     0.000000

 -----------------------------------------------------------------
                    Cartesian Multipole Moments
 -----------------------------------------------------------------
    Charge (ESU x 10^10)
                -0.0000
    Dipole Moment (Debye)
         X       2.3956      Y       0.0000      Z      -0.0000
       Tot       2.3956
    Quadrupole Moments (Debye-Ang)
        XX     -12.0974     XY       0.0000     YY     -11.6191
        XZ       0.0000     YZ       0.0000     ZZ     -11.5589
    Octopole Moments (Debye-Ang^2)
       XXX      -0.7765    XXY       0.0000    XYY       0.2798
       YYY       0.0000    XXZ      -0.0000    XYZ       0.0000
       YYZ      -0.0000    XZZ      -0.6901    YZZ       0.0000
       ZZZ      -0.0000
    Hexadecapole Moments (Debye-Ang^3)
      XXXX     -46.4117   XXXY       0.0001   XXYY     -10.5135
      XYYY       0.0001   YYYY     -18.4544   XXXZ       0.0000
      XXYZ       0.0000   XYYZ       0.0000   YYYZ       0.0000
      XXZZ      -9.3269   XYZZ       0.0000   YYZZ      -5.0154
      XZZZ       0.0000   YZZZ       0.0000   ZZZZ     -10.0792
 -----------------------------------------------------------------
 Calculating analytic gradient of the SCF energy
 Gradient of SCF Energy
            1           2           3           4
    1   0.0552635  -0.0523763  -0.0014459  -0.0014413
    2   0.0000093  -0.0000008  -0.0034357   0.0034272
    3   0.0000000  -0.0000000  -0.0000000   0.0000000
 Max gradient component =       5.526E-02
 RMS gradient           =       2.203E-02
 Gradient time:  CPU 3.43 s  wall 1.13 s
 Geometry Optimization Parameters
   NAtoms,    NIC,     NZ,  NCons,   NDum,   NFix, NCnnct, MaxDiis
        4      17       0       0       0       0       0       0


** GEOMETRY OPTIMIZATION IN DELOCALIZED INTERNAL COORDINATES **
   Searching for a Minimum

   Optimization Cycle:   1

                       Coordinates (Angstroms)
     ATOM                X               Y               Z
      1  C         0.5388599848    0.0000031584    0.0000000000
      2  O        -0.6857726590   -0.0000011287    0.0000000000
      3  H         1.1265078769    0.9318774869    0.0000000000
      4  H         1.1265134869   -0.9318874080    0.0000000000
   Point Group: cs    Number of degrees of freedom:     5


   Energy is   -114.482415691


 Attempting to generate delocalized internal coordinates

  ***ERROR*** Wrong Number of Internal Coordinates
              Should be:   6  Found:   5
**WARNING** Problems with Internal Coordinates
  Switching to Cartesian Coordinates

 Translations and Rotations Projected Out of Hessian

  6 Hessian modes will be used to form the next step
  Hessian Eigenvalues:
     1.000000    1.000000    1.000000    1.000000    1.000000    1.000000

 Minimum search - taking simple RFO step
 Searching for Lamda that Minimizes Along All modes
 Value Taken    Lamda =  -0.00579132
 Step Taken.  Stepsize is  0.075883

                             Maximum     Tolerance    Cnvgd?
         Gradient           0.055264      0.000300      NO
         Displacement       0.054945      0.001200      NO
         Energy change     *********      0.000001      NO

 ----------------------------------------------------------------
             Standard Nuclear Orientation (Angstroms)
    I     Atom           X                Y                Z
 ----------------------------------------------------------------
    1      C       0.5097841763    -0.0000017590     0.0000000000
    2      O      -0.6582158966    -0.0000007026     0.0000000000
    3      H       1.1272686006     0.9336851400     0.0000000000
    4      H       1.1272718092    -0.9336905698     0.0000000000
 ----------------------------------------------------------------
 Molecular Point Group                 Cs    NOp =  2
 Largest Abelian Subgroup              Cs    NOp =  2
 Nuclear Repulsion Energy =          31.90532720 hartrees
 There are        8 alpha and        8 beta electrons
 Applying Cartesian multipole field
    Component          Value
    ---------          -----
     (2,0,0)        1.00000E-10
     (0,2,0)        2.00000E-10
     (0,0,2)       -3.00000E-10
 Nucleus-field energy     =     0.0000000039 hartrees
 Requested basis set is def2-TZVP
 There are 30 shells and 74 basis functions
 A cutoff of  1.0D-10 yielded    464 shell pairs
 There are      2880 function pairs (      3743 Cartesian)
 Smallest overlap matrix eigenvalue = 1.29E-03
 Guess MOs from SCF MO coefficient file

 -----------------------------------------------------------------------
  General SCF calculation program by
  Eric Jon Sundstrom, Paul Horn, Yuezhi Mao, Dmitri Zuev, Alec White,
  David Stuck, Shaama M.S., Shane Yost, Joonho Lee, David Small,
  Daniel Levine, Susi Lehtola, Hugh Burton, Evgeny Epifanovsky
 -----------------------------------------------------------------------
 Exchange:     0.2700 Hartree-Fock + 1.0000 M06
 Correlation:  1.0000 M06
 Using SG-3 standard quadrature grid
 using 4 threads for integral computing
 -------------------------------------------------------
 OpenMP Integral computing Module                
 Release: version 2.0, May 2017, Q-Chem Inc. Pleasanton 
 -------------------------------------------------------
 A restricted SCF calculation will be
 performed using DIIS
 SCF converges when DIIS error is below 1.0e-07
 ---------------------------------------
  Cycle       Energy         DIIS error
 ---------------------------------------
    1    -114.4806456780      2.26e-03  
    2    -114.4828023912      1.14e-03  
    3    -114.4827642365      1.11e-03  
    4    -114.4833345786      2.21e-04  
    5    -114.4833591085      4.12e-05  
    6    -114.4833602398      4.84e-06  
    7    -114.4833602539      4.14e-07  
    8    -114.4833602545      1.37e-07  
    9    -114.4833602539      8.28e-09  Convergence criterion met
 ---------------------------------------
 SCF time:   CPU 8.88s  wall 3.00s 
 SCF   energy in the final basis set =     -114.4833602539
 Total energy in the final basis set =     -114.4833602539
 
 --------------------------------------------------------------
             Orbital Energies (a.u.) and Symmetries
 --------------------------------------------------------------
 
 Alpha MOs, Restricted
 -- Occupied --                  
-19.229 -10.337  -1.106  -0.644  -0.515  -0.478  -0.437  -0.287
  1 A'    2 A'    3 A'    4 A'    5 A'    6 A'    1 A"    7 A'                 
 -- Virtual --                   
 -0.038   0.054   0.112   0.112   0.211   0.214   0.253   0.380
  2 A"    8 A'    9 A'   10 A'    3 A"   11 A'   12 A'   13 A'                 
  0.399   0.405   0.506   0.509   0.577   0.592   0.685   0.790
 14 A'   15 A'   16 A'    4 A"    5 A"   17 A'   18 A'   19 A'                 
  0.792   0.942   1.083   1.298   1.335   1.422   1.431   1.441
  6 A"   20 A'   21 A'   22 A'    7 A"   23 A'   24 A'    8 A"                 
  1.586   1.636   1.743   1.908   1.940   1.953   1.992   2.181
 25 A'   26 A'    9 A"   10 A"   11 A"   27 A'   28 A'   29 A'                 
  2.261   2.402   2.480   2.531   2.633   2.843   2.929   2.944
 30 A'   31 A'   32 A'   33 A'   12 A"   13 A"   14 A"   34 A'                 
  2.972   2.999   3.027   3.108   3.140   3.201   3.575   3.657
 35 A'   15 A"   36 A'   37 A'   16 A"   38 A'   17 A"   39 A'                 
  3.672   3.788   3.921   4.326   5.173   5.185   5.535   5.670
 40 A'   41 A'   42 A'   43 A'   18 A"   44 A'   19 A"   45 A'                 
  6.112   6.290   6.346   6.376   6.420   6.763   6.812   7.056
 20 A"   46 A'   21 A"   47 A'   48 A'   22 A"   49 A'   50 A'                 
 22.336  43.524
 51 A'   52 A'                                                                 
 
 Beta MOs, Restricted
 -- Occupied --                  
-19.229 -10.337  -1.106  -0.644  -0.515  -0.478  -0.437  -0.287
  1 A'    2 A'    3 A'    4 A'    5 A'    6 A'    1 A"    7 A'                 
 -- Virtual --                   
 -0.038   0.054   0.112   0.112   0.211   0.214   0.253   0.380
  2 A"    8 A'    9 A'   10 A'    3 A"   11 A'   12 A'   13 A'                 
  0.399   0.405   0.506   0.509   0.577   0.592   0.685   0.790
 14 A'   15 A'   16 A'    4 A"    5 A"   17 A'   18 A'   19 A'                 
  0.792   0.942   1.083   1.298   1.335   1.422   1.431   1.441
  6 A"   20 A'   21 A'   22 A'    7 A"   23 A'   24 A'    8 A"                 
  1.586   1.636   1.743   1.908   1.940   1.953   1.992   2.181
 25 A'   26 A'    9 A"   10 A"   11 A"   27 A'   28 A'   29 A'                 
  2.261   2.402   2.480   2.531   2.633   2.843   2.929   2.944
 30 A'   31 A'   32 A'   33 A'   12 A"   13 A"   14 A"   34 A'                 
  2.972   2.999   3.027   3.108   3.140   3.201   3.575   3.657
 35 A'   15 A"   36 A'   37 A'   16 A"   38 A'   17 A"   39 A'                 
  3.672   3.788   3.921   4.326   5.173   5.185   5.535   5.670
 40 A'   41 A'   42 A'   43 A'   18 A"   44 A'   19 A"   45 A'                 
  6.112   6.290   6.346   6.376   6.420   6.763   6.812   7.056
 20 A"   46 A'   21 A"   47 A'   48 A'   22 A"   49 A'   50 A'                 
 22.336  43.524
 51 A'   52 A'                                                                 
 --------------------------------------------------------------
 
          Ground-State Mulliken Net Atomic Charges

     Atom                 Charge (a.u.)
  ----------------------------------------
      1 C                     0.180346
      2 O                    -0.272183
      3 H                     0.045919
      4 H                     0.045918
  ----------------------------------------
  Sum of atomic charges =     0.000000

 -----------------------------------------------------------------
                    Cartesian Multipole Moments
 -----------------------------------------------------------------
    Charge (ESU x 10^10)
                 0.0000
    Dipole Moment (Debye)
         X       2.1077      Y       0.0000      Z       0.0000
       Tot       2.1077
    Quadrupole Moments (Debye-Ang)
        XX     -12.2439     XY      -0.0000     YY     -11.7393
        XZ       0.0000     YZ       0.0000     ZZ     -11.4269
    Octopole Moments (Debye-Ang^2)
       XXX      -1.4100    XXY       0.0000    XYY      -0.1979
       YYY       0.0001    XXZ       0.0000    XYZ      -0.0000
       YYZ       0.0000    XZZ      -0.8286    YZZ       0.0000
       ZZZ       0.0000
    Hexadecapole Moments (Debye-Ang^3)
      XXXX     -45.0544   XXXY       0.0000   XXYY     -10.6213
      XYYY       0.0000   YYYY     -19.2746   XXXZ       0.0000
      XXYZ      -0.0000   XYYZ       0.0000   YYYZ      -0.0000
      XXZZ      -9.0337   XYZZ       0.0000   YYZZ      -5.0606
      XZZZ       0.0000   YZZZ      -0.0000   ZZZZ      -9.7799
 -----------------------------------------------------------------
 Calculating analytic gradient of the SCF energy
 Gradient of SCF Energy
            1           2           3           4
    1  -0.0442829   0.0395977   0.0023420   0.0023432
    2   0.0000010   0.0000003   0.0007499  -0.0007512
    3   0.0000000   0.0000000  -0.0000000  -0.0000000
 Max gradient component =       4.428E-02
 RMS gradient           =       1.718E-02
 Gradient time:  CPU 2.86 s  wall 0.73 s
 Geometry Optimization Parameters
   NAtoms,    NIC,     NZ,  NCons,   NDum,   NFix, NCnnct, MaxDiis
        4      17       0       0       0       0       0       0

 Cartesian Hessian Update
 Hessian updated using BFGS update


** GEOMETRY OPTIMIZATION IN CARTESIAN COORDINATES **
   Searching for a Minimum

   Optimization Cycle:   2

                       Coordinates (Angstroms)
     ATOM                X               Y               Z
      1  C         0.5097841763   -0.0000017590    0.0000000000
      2  O        -0.6582158966   -0.0000007026    0.0000000000
      3  H         1.1272686006    0.9336851400    0.0000000000
      4  H         1.1272718092   -0.9336905698    0.0000000000
   Point Group: cs    Number of degrees of freedom:     5


   Energy is   -114.483360254


 Translations and Rotations Projected Out of Hessian

  2 Hessian modes will be used to form the next step
  Hessian Eigenvalues:
     0.998365    1.791439

 Minimum search - taking simple RFO step
 Searching for Lamda that Minimizes Along All modes
 Value Taken    Lamda =  -0.00197448
 Step Taken.  Stepsize is  0.033181

                             Maximum     Tolerance    Cnvgd?
         Gradient           0.044283      0.000300      NO
         Displacement       0.024697      0.001200      NO
         Energy change     -0.000945      0.000001      NO

 ----------------------------------------------------------------
             Standard Nuclear Orientation (Angstroms)
    I     Atom           X                Y                Z
 ----------------------------------------------------------------
    1      C       0.5228530529    -0.0000020788     0.0000000000
    2      O      -0.6698970028    -0.0000007878     0.0000000000
    3      H       1.1265749090     0.9334681120     0.0000000000
    4      H       1.1265777305    -0.9334731367     0.0000000000
 ----------------------------------------------------------------
 Molecular Point Group                 Cs    NOp =  2
 Largest Abelian Subgroup              Cs    NOp =  2
 Nuclear Repulsion Energy =          31.47348913 hartrees
 There are        8 alpha and        8 beta electrons
 Applying Cartesian multipole field
    Component          Value
    ---------          -----
     (2,0,0)        1.00000E-10
     (0,2,0)        2.00000E-10
     (0,0,2)       -3.00000E-10
 Nucleus-field energy     =     0.0000000040 hartrees
 Requested basis set is def2-TZVP
 There are 30 shells and 74 basis functions
 A cutoff of  1.0D-10 yielded    464 shell pairs
 There are      2880 function pairs (      3743 Cartesian)
 Smallest overlap matrix eigenvalue = 1.40E-03
 Guess MOs from SCF MO coefficient file

 -----------------------------------------------------------------------
  General SCF calculation program by
  Eric Jon Sundstrom, Paul Horn, Yuezhi Mao, Dmitri Zuev, Alec White,
  David Stuck, Shaama M.S., Shane Yost, Joonho Lee, David Small,
  Daniel Levine, Susi Lehtola, Hugh Burton, Evgeny Epifanovsky
 -----------------------------------------------------------------------
 Exchange:     0.2700 Hartree-Fock + 1.0000 M06
 Correlation:  1.0000 M06
 Using SG-3 standard quadrature grid
 using 4 threads for integral computing
 -------------------------------------------------------
 OpenMP Integral computing Module                
 Release: version 2.0, May 2017, Q-Chem Inc. Pleasanton 
 -------------------------------------------------------
 A restricted SCF calculation will be
 performed using DIIS
 SCF converges when DIIS error is below 1.0e-07
 ---------------------------------------
  Cycle       Energy         DIIS error
 ---------------------------------------
    1    -114.4836806369      1.03e-03  
    2    -114.4841250157      4.81e-04  
    3    -114.4841021049      5.02e-04  
    4    -114.4842183181      1.06e-04  
    5    -114.4842241038      1.76e-05  
    6    -114.4842243110      2.15e-06  
    7    -114.4842243136      1.88e-07  
    8    -114.4842243129      6.35e-08  Convergence criterion met
 ---------------------------------------
 SCF time:   CPU 7.87s  wall 2.00s 
 SCF   energy in the final basis set =     -114.4842243129
 Total energy in the final basis set =     -114.4842243129
 
 --------------------------------------------------------------
             Orbital Energies (a.u.) and Symmetries
 --------------------------------------------------------------
 
 Alpha MOs, Restricted
 -- Occupied --                  
-19.230 -10.340  -1.092  -0.649  -0.513  -0.474  -0.427  -0.289
  1 A'    2 A'    3 A'    4 A'    5 A'    6 A'    1 A"    7 A'                 
 -- Virtual --                   
 -0.045   0.053   0.109   0.112   0.211   0.211   0.256   0.379
  2 A"    8 A'    9 A'   10 A'    3 A"   11 A'   12 A'   13 A'                 
  0.404   0.405   0.484   0.509   0.576   0.591   0.682   0.785
 14 A'   15 A'   16 A'    4 A"    5 A"   17 A'   18 A'    6 A"                 
  0.793   0.934   1.058   1.291   1.338   1.437   1.443   1.443
 19 A'   20 A'   21 A'   22 A'    7 A"   23 A'   24 A'    8 A"                 
  1.573   1.632   1.738   1.900   1.938   1.946   1.991   2.162
 25 A'   26 A'    9 A"   10 A"   11 A"   27 A'   28 A'   29 A'                 
  2.269   2.392   2.477   2.530   2.624   2.842   2.929   2.933
 30 A'   31 A'   32 A'   33 A'   12 A"   13 A"   14 A"   34 A'                 
  2.959   3.009   3.012   3.111   3.133   3.199   3.549   3.641
 35 A'   15 A"   36 A'   37 A'   16 A"   38 A'   17 A"   39 A'                 
  3.653   3.787   3.942   4.286   5.172   5.181   5.502   5.627
 40 A'   41 A'   42 A'   43 A'   18 A"   44 A'   19 A"   45 A'                 
  6.055   6.234   6.294   6.343   6.416   6.769   6.814   7.027
 20 A"   46 A'   47 A'   21 A"   48 A'   22 A"   49 A'   50 A'                 
 22.346  43.493
 51 A'   52 A'                                                                 
 
 Beta MOs, Restricted
 -- Occupied --                  
-19.230 -10.340  -1.092  -0.649  -0.513  -0.474  -0.427  -0.289
  1 A'    2 A'    3 A'    4 A'    5 A'    6 A'    1 A"    7 A'                 
 -- Virtual --                   
 -0.045   0.053   0.109   0.112   0.211   0.211   0.256   0.379
  2 A"    8 A'    9 A'   10 A'    3 A"   11 A'   12 A'   13 A'                 
  0.404   0.405   0.484   0.509   0.576   0.591   0.682   0.785
 14 A'   15 A'   16 A'    4 A"    5 A"   17 A'   18 A'    6 A"                 
  0.793   0.934   1.058   1.291   1.338   1.437   1.443   1.443
 19 A'   20 A'   21 A'   22 A'    7 A"   23 A'   24 A'    8 A"                 
  1.573   1.632   1.738   1.900   1.938   1.946   1.991   2.162
 25 A'   26 A'    9 A"   10 A"   11 A"   27 A'   28 A'   29 A'                 
  2.269   2.392   2.477   2.530   2.624   2.842   2.929   2.933
 30 A'   31 A'   32 A'   33 A'   12 A"   13 A"   14 A"   34 A'                 
  2.959   3.009   3.012   3.111   3.133   3.199   3.549   3.641
 35 A'   15 A"   36 A'   37 A'   16 A"   38 A'   17 A"   39 A'                 
  3.653   3.787   3.942   4.286   5.172   5.181   5.502   5.627
 40 A'   41 A'   42 A'   43 A'   18 A"   44 A'   19 A"   45 A'                 
  6.055   6.234   6.294   6.343   6.416   6.769   6.814   7.027
 20 A"   46 A'   47 A'   21 A"   48 A'   22 A"   49 A'   50 A'                 
 22.346  43.493
 51 A'   52 A'                                                                 
 --------------------------------------------------------------
 
          Ground-State Mulliken Net Atomic Charges

     Atom                 Charge (a.u.)
  ----------------------------------------
      1 C                     0.192417
      2 O                    -0.302535
      3 H                     0.055059
      4 H                     0.055059
  ----------------------------------------
  Sum of atomic charges =     0.000000

 -----------------------------------------------------------------
                    Cartesian Multipole Moments
 -----------------------------------------------------------------
    Charge (ESU x 10^10)
                -0.0000
    Dipole Moment (Debye)
         X       2.2380      Y      -0.0000      Z      -0.0000
       Tot       2.2380
    Quadrupole Moments (Debye-Ang)
        XX     -12.1790     XY      -0.0000     YY     -11.6809
        XZ       0.0000     YZ       0.0000     ZZ     -11.4854
    Octopole Moments (Debye-Ang^2)
       XXX      -1.1375    XXY       0.0000    XYY       0.0173
       YYY       0.0001    XXZ      -0.0000    XYZ       0.0000
       YYZ      -0.0000    XZZ      -0.7687    YZZ       0.0000
       ZZZ      -0.0000
    Hexadecapole Moments (Debye-Ang^3)
      XXXX     -45.6191   XXXY       0.0000   XXYY     -10.5609
      XYYY       0.0000   YYYY     -18.9011   XXXZ      -0.0000
      XXYZ       0.0000   XYYZ       0.0000   YYYZ       0.0000
      XXZZ      -9.1560   XYZZ       0.0000   YYZZ      -5.0398
      XZZZ       0.0000   YZZZ       0.0000   ZZZZ      -9.9102
 -----------------------------------------------------------------
 Calculating analytic gradient of the SCF energy
 Gradient of SCF Energy
            1           2           3           4
    1   0.0034702  -0.0048100   0.0006694   0.0006704
    2   0.0000005   0.0000003  -0.0007675   0.0007666
    3  -0.0000000   0.0000000   0.0000000  -0.0000000
 Max gradient component =       4.810E-03
 RMS gradient           =       1.762E-03
 Gradient time:  CPU 2.79 s  wall 0.71 s
 Geometry Optimization Parameters
   NAtoms,    NIC,     NZ,  NCons,   NDum,   NFix, NCnnct, MaxDiis
        4      17       0       0       0       0       0       0

 Cartesian Hessian Update
 Hessian updated using BFGS update


** GEOMETRY OPTIMIZATION IN CARTESIAN COORDINATES **
   Searching for a Minimum

   Optimization Cycle:   3

                       Coordinates (Angstroms)
     ATOM                X               Y               Z
      1  C         0.5228530529   -0.0000020788    0.0000000000
      2  O        -0.6698970028   -0.0000007878    0.0000000000
      3  H         1.1265749090    0.9334681120    0.0000000000
      4  H         1.1265777305   -0.9334731367    0.0000000000
   Point Group: cs    Number of degrees of freedom:     5


   Energy is   -114.484224313


 Translations and Rotations Projected Out of Hessian

  3 Hessian modes will be used to form the next step
  Hessian Eigenvalues:
     0.996424    0.999897    1.970706

 Minimum search - taking simple RFO step
 Searching for Lamda that Minimizes Along All modes
 Value Taken    Lamda =  -0.00002030
 Step Taken.  Stepsize is  0.003420

                             Maximum     Tolerance    Cnvgd?
         Gradient           0.004810      0.000300      NO
         Displacement       0.002804      0.001200      NO
         Energy change     -0.000864      0.000001      NO

 ----------------------------------------------------------------
             Standard Nuclear Orientation (Angstroms)
    I     Atom           X                Y                Z
 ----------------------------------------------------------------
    1      C       0.5221154761    -0.0000023621     0.0000000000
    2      O      -0.6684132499    -0.0000009628     0.0000000000
    3      H       1.1262020792     0.9338230625     0.0000000000
    4      H       1.1262043842    -0.9338276289     0.0000000000
 ----------------------------------------------------------------
 Molecular Point Group                 Cs    NOp =  2
 Largest Abelian Subgroup              Cs    NOp =  2
 Nuclear Repulsion Energy =          31.51363674 hartrees
 There are        8 alpha and        8 beta electrons
 Applying Cartesian multipole field
    Component          Value
    ---------          -----
     (2,0,0)        1.00000E-10
     (0,2,0)        2.00000E-10
     (0,0,2)       -3.00000E-10
 Nucleus-field energy     =     0.0000000040 hartrees
 Requested basis set is def2-TZVP
 There are 30 shells and 74 basis functions
 A cutoff of  1.0D-10 yielded    464 shell pairs
 There are      2880 function pairs (      3743 Cartesian)
 Smallest overlap matrix eigenvalue = 1.39E-03
 Guess MOs from SCF MO coefficient file

 -----------------------------------------------------------------------
  General SCF calculation program by
  Eric Jon Sundstrom, Paul Horn, Yuezhi Mao, Dmitri Zuev, Alec White,
  David Stuck, Shaama M.S., Shane Yost, Joonho Lee, David Small,
  Daniel Levine, Susi Lehtola, Hugh Burton, Evgeny Epifanovsky
 -----------------------------------------------------------------------
 Exchange:     0.2700 Hartree-Fock + 1.0000 M06
 Correlation:  1.0000 M06
 Using SG-3 standard quadrature grid
 using 4 threads for integral computing
 -------------------------------------------------------
 OpenMP Integral computing Module                
 Release: version 2.0, May 2017, Q-Chem Inc. Pleasanton 
 -------------------------------------------------------
 A restricted SCF calculation will be
 performed using DIIS
 SCF converges when DIIS error is below 1.0e-07
 ---------------------------------------
  Cycle       Energy         DIIS error
 ---------------------------------------
    1    -114.4842327320      8.75e-05  
    2    -114.4842359220      3.81e-05  
    3    -114.4842358069      3.90e-05  
    4    -114.4842364951      9.60e-06  
    5    -114.4842365423      1.49e-06  
    6    -114.4842365439      1.68e-07  
    7    -114.4842365445      1.52e-08  Convergence criterion met
 ---------------------------------------
 SCF time:   CPU 6.85s  wall 2.00s 
 SCF   energy in the final basis set =     -114.4842365445
 Total energy in the final basis set =     -114.4842365445
 
 --------------------------------------------------------------
             Orbital Energies (a.u.) and Symmetries
 --------------------------------------------------------------
 
 Alpha MOs, Restricted
 -- Occupied --                  
-19.230 -10.339  -1.093  -0.648  -0.513  -0.474  -0.428  -0.289
  1 A'    2 A'    3 A'    4 A'    5 A'    6 A'    1 A"    7 A'                 
 -- Virtual --                   
 -0.044   0.053   0.110   0.112   0.211   0.212   0.256   0.379
  2 A"    8 A'    9 A'   10 A'    3 A"   11 A'   12 A'   13 A'                 
  0.403   0.405   0.486   0.509   0.576   0.591   0.682   0.786
 14 A'   15 A'   16 A'    4 A"    5 A"   17 A'   18 A'    6 A"                 
  0.793   0.934   1.060   1.292   1.338   1.437   1.441   1.443
 19 A'   20 A'   21 A'   22 A'    7 A"   23 A'   24 A'    8 A"                 
  1.574   1.633   1.738   1.901   1.938   1.946   1.991   2.164
 25 A'   26 A'    9 A"   10 A"   11 A"   27 A'   28 A'   29 A'                 
  2.269   2.393   2.477   2.530   2.624   2.842   2.929   2.934
 30 A'   31 A'   32 A'   33 A'   12 A"   13 A"   14 A"   34 A'                 
  2.960   3.009   3.014   3.111   3.133   3.200   3.551   3.643
 35 A'   15 A"   36 A'   37 A'   16 A"   38 A'   17 A"   39 A'                 
  3.655   3.787   3.940   4.289   5.172   5.182   5.505   5.631
 40 A'   41 A'   42 A'   43 A'   18 A"   44 A'   19 A"   45 A'                 
  6.060   6.239   6.301   6.343   6.416   6.769   6.814   7.029
 20 A"   46 A'   47 A'   21 A"   48 A'   22 A"   49 A'   50 A'                 
 22.347  43.495
 51 A'   52 A'                                                                 
 
 Beta MOs, Restricted
 -- Occupied --                  
-19.230 -10.339  -1.093  -0.648  -0.513  -0.474  -0.428  -0.289
  1 A'    2 A'    3 A'    4 A'    5 A'    6 A'    1 A"    7 A'                 
 -- Virtual --                   
 -0.044   0.053   0.110   0.112   0.211   0.212   0.256   0.379
  2 A"    8 A'    9 A'   10 A'    3 A"   11 A'   12 A'   13 A'                 
  0.403   0.405   0.486   0.509   0.576   0.591   0.682   0.786
 14 A'   15 A'   16 A'    4 A"    5 A"   17 A'   18 A'    6 A"                 
  0.793   0.934   1.060   1.292   1.338   1.437   1.441   1.443
 19 A'   20 A'   21 A'   22 A'    7 A"   23 A'   24 A'    8 A"                 
  1.574   1.633   1.738   1.901   1.938   1.946   1.991   2.164
 25 A'   26 A'    9 A"   10 A"   11 A"   27 A'   28 A'   29 A'                 
  2.269   2.393   2.477   2.530   2.624   2.842   2.929   2.934
 30 A'   31 A'   32 A'   33 A'   12 A"   13 A"   14 A"   34 A'                 
  2.960   3.009   3.014   3.111   3.133   3.200   3.551   3.643
 35 A'   15 A"   36 A'   37 A'   16 A"   38 A'   17 A"   39 A'                 
  3.655   3.787   3.940   4.289   5.172   5.182   5.505   5.631
 40 A'   41 A'   42 A'   43 A'   18 A"   44 A'   19 A"   45 A'                 
  6.060   6.239   6.301   6.343   6.416   6.769   6.814   7.029
 20 A"   46 A'   47 A'   21 A"   48 A'   22 A"   49 A'   50 A'                 
 22.347  43.495
 51 A'   52 A'                                                                 
 --------------------------------------------------------------
 
          Ground-State Mulliken Net Atomic Charges

     Atom                 Charge (a.u.)
  ----------------------------------------
      1 C                     0.191431
      2 O                    -0.300011
      3 H                     0.054290
      4 H                     0.054290
  ----------------------------------------
  Sum of atomic charges =     0.000000

 -----------------------------------------------------------------
                    Cartesian Multipole Moments
 -----------------------------------------------------------------
    Charge (ESU x 10^10)
                 0.0000
    Dipole Moment (Debye)
         X       2.2267      Y      -0.0000      Z       0.0000
       Tot       2.2267
    Quadrupole Moments (Debye-Ang)
        XX     -12.1849     XY      -0.0000     YY     -11.6830
        XZ       0.0000     YZ      -0.0000     ZZ     -11.4800
    Octopole Moments (Debye-Ang^2)
       XXX      -1.1754    XXY       0.0000    XYY      -0.0029
       YYY       0.0001    XXZ       0.0000    XYZ      -0.0000
       YYZ       0.0000    XZZ      -0.7770    YZZ       0.0000
       ZZZ       0.0000
    Hexadecapole Moments (Debye-Ang^3)
      XXXX     -45.5569   XXXY       0.0000   XXYY     -10.5624
      XYYY       0.0000   YYYY     -18.9297   XXXZ       0.0000
      XXYZ      -0.0000   XYYZ       0.0000   YYYZ      -0.0000
      XXZZ      -9.1419   XYZZ       0.0000   YYZZ      -5.0415
      XZZZ       0.0000   YZZZ      -0.0000   ZZZZ      -9.8984
 -----------------------------------------------------------------
 Calculating analytic gradient of the SCF energy
 Gradient of SCF Energy
            1           2           3           4
    1  -0.0003040  -0.0009998   0.0006515   0.0006522
    2   0.0000000   0.0000004  -0.0006176   0.0006172
    3   0.0000000  -0.0000000   0.0000000  -0.0000000
 Max gradient component =       9.998E-04
 RMS gradient           =       4.747E-04
 Gradient time:  CPU 2.83 s  wall 0.72 s
 Geometry Optimization Parameters
   NAtoms,    NIC,     NZ,  NCons,   NDum,   NFix, NCnnct, MaxDiis
        4      17       0       0       0       0       0       0

 Cartesian Hessian Update
 Hessian updated using BFGS update


** GEOMETRY OPTIMIZATION IN CARTESIAN COORDINATES **
   Searching for a Minimum

   Optimization Cycle:   4

                       Coordinates (Angstroms)
     ATOM                X               Y               Z
      1  C         0.5221154761   -0.0000023621    0.0000000000
      2  O        -0.6684132499   -0.0000009628    0.0000000000
      3  H         1.1262020792    0.9338230625    0.0000000000
      4  H         1.1262043842   -0.9338276289    0.0000000000
   Point Group: cs    Number of degrees of freedom:     5


   Energy is   -114.484236544


 Translations and Rotations Projected Out of Hessian

  4 Hessian modes will be used to form the next step
  Hessian Eigenvalues:
     0.709909    1.000000    1.000200    2.203057

 Minimum search - taking simple RFO step
 Searching for Lamda that Minimizes Along All modes
 Value Taken    Lamda =  -0.00000381
 Step Taken.  Stepsize is  0.002316

                             Maximum     Tolerance    Cnvgd?
         Gradient           0.001000      0.000300      NO
         Displacement       0.001422      0.001200      NO
         Energy change     -0.000012      0.000001      NO

 ----------------------------------------------------------------
             Standard Nuclear Orientation (Angstroms)
    I     Atom           X                Y                Z
 ----------------------------------------------------------------
    1      C       0.5223371027    -0.0000024050     0.0000000000
    2      O      -0.6676609083    -0.0000012233     0.0000000000
    3      H       1.1257153582     0.9342773826     0.0000000000
    4      H       1.1257171369    -0.9342816456     0.0000000000
 ----------------------------------------------------------------
 Molecular Point Group                 Cs    NOp =  2
 Largest Abelian Subgroup              Cs    NOp =  2
 Nuclear Repulsion Energy =          31.52487181 hartrees
 There are        8 alpha and        8 beta electrons
 Applying Cartesian multipole field
    Component          Value
    ---------          -----
     (2,0,0)        1.00000E-10
     (0,2,0)        2.00000E-10
     (0,0,2)       -3.00000E-10
 Nucleus-field energy     =     0.0000000040 hartrees
 Requested basis set is def2-TZVP
 There are 30 shells and 74 basis functions
 A cutoff of  1.0D-10 yielded    464 shell pairs
 There are      2880 function pairs (      3743 Cartesian)
 Smallest overlap matrix eigenvalue = 1.39E-03
 Guess MOs from SCF MO coefficient file

 -----------------------------------------------------------------------
  General SCF calculation program by
  Eric Jon Sundstrom, Paul Horn, Yuezhi Mao, Dmitri Zuev, Alec White,
  David Stuck, Shaama M.S., Shane Yost, Joonho Lee, David Small,
  Daniel Levine, Susi Lehtola, Hugh Burton, Evgeny Epifanovsky
 -----------------------------------------------------------------------
 Exchange:     0.2700 Hartree-Fock + 1.0000 M06
 Correlation:  1.0000 M06
 Using SG-3 standard quadrature grid
 using 4 threads for integral computing
 -------------------------------------------------------
 OpenMP Integral computing Module                
 Release: version 2.0, May 2017, Q-Chem Inc. Pleasanton 
 -------------------------------------------------------
 A restricted SCF calculation will be
 performed using DIIS
 SCF converges when DIIS error is below 1.0e-07
 ---------------------------------------
  Cycle       Energy         DIIS error
 ---------------------------------------
    1    -114.4842393732      2.14e-05  
    2    -114.4842395646      5.76e-06  
    3    -114.4842395747      3.17e-06  
    4    -114.4842395806      4.84e-07  
    5    -114.4842395803      2.95e-07  
    6    -114.4842395802      6.81e-08  Convergence criterion met
 ---------------------------------------
 SCF time:   CPU 5.86s  wall 1.00s 
 SCF   energy in the final basis set =     -114.4842395802
 Total energy in the final basis set =     -114.4842395802
 
 --------------------------------------------------------------
             Orbital Energies (a.u.) and Symmetries
 --------------------------------------------------------------
 
 Alpha MOs, Restricted
 -- Occupied --                  
-19.230 -10.339  -1.094  -0.648  -0.513  -0.474  -0.428  -0.289
  1 A'    2 A'    3 A'    4 A'    5 A'    6 A'    1 A"    7 A'                 
 -- Virtual --                   
 -0.044   0.054   0.110   0.112   0.211   0.211   0.256   0.379
  2 A"    8 A'    9 A'   10 A'    3 A"   11 A'   12 A'   13 A'                 
  0.403   0.405   0.486   0.509   0.576   0.591   0.682   0.786
 14 A'   15 A'   16 A'    4 A"    5 A"   17 A'   18 A'    6 A"                 
  0.793   0.934   1.061   1.292   1.338   1.437   1.440   1.443
 19 A'   20 A'   21 A'   22 A'    7 A"   23 A'   24 A'    8 A"                 
  1.575   1.633   1.738   1.901   1.939   1.946   1.991   2.165
 25 A'   26 A'    9 A"   10 A"   11 A"   27 A'   28 A'   29 A'                 
  2.269   2.392   2.477   2.530   2.625   2.842   2.929   2.934
 30 A'   31 A'   32 A'   33 A'   12 A"   13 A"   14 A"   34 A'                 
  2.960   3.009   3.015   3.112   3.133   3.200   3.552   3.644
 35 A'   15 A"   36 A'   37 A'   16 A"   38 A'   17 A"   39 A'                 
  3.655   3.786   3.939   4.290   5.172   5.182   5.505   5.632
 40 A'   41 A'   42 A'   43 A'   18 A"   44 A'   19 A"   45 A'                 
  6.061   6.240   6.303   6.343   6.417   6.769   6.814   7.030
 20 A"   46 A'   47 A'   21 A"   48 A'   22 A"   49 A'   50 A'                 
 22.347  43.496
 51 A'   52 A'                                                                 
 
 Beta MOs, Restricted
 -- Occupied --                  
-19.230 -10.339  -1.094  -0.648  -0.513  -0.474  -0.428  -0.289
  1 A'    2 A'    3 A'    4 A'    5 A'    6 A'    1 A"    7 A'                 
 -- Virtual --                   
 -0.044   0.054   0.110   0.112   0.211   0.211   0.256   0.379
  2 A"    8 A'    9 A'   10 A'    3 A"   11 A'   12 A'   13 A'                 
  0.403   0.405   0.486   0.509   0.576   0.591   0.682   0.786
 14 A'   15 A'   16 A'    4 A"    5 A"   17 A'   18 A'    6 A"                 
  0.793   0.934   1.061   1.292   1.338   1.437   1.440   1.443
 19 A'   20 A'   21 A'   22 A'    7 A"   23 A'   24 A'    8 A"                 
  1.575   1.633   1.738   1.901   1.939   1.946   1.991   2.165
 25 A'   26 A'    9 A"   10 A"   11 A"   27 A'   28 A'   29 A'                 
  2.269   2.392   2.477   2.530   2.625   2.842   2.929   2.934
 30 A'   31 A'   32 A'   33 A'   12 A"   13 A"   14 A"   34 A'                 
  2.960   3.009   3.015   3.112   3.133   3.200   3.552   3.644
 35 A'   15 A"   36 A'   37 A'   16 A"   38 A'   17 A"   39 A'                 
  3.655   3.786   3.939   4.290   5.172   5.182   5.505   5.632
 40 A'   41 A'   42 A'   43 A'   18 A"   44 A'   19 A"   45 A'                 
  6.061   6.240   6.303   6.343   6.417   6.769   6.814   7.030
 20 A"   46 A'   47 A'   21 A"   48 A'   22 A"   49 A'   50 A'                 
 22.347  43.496
 51 A'   52 A'                                                                 
 --------------------------------------------------------------
 
          Ground-State Mulliken Net Atomic Charges

     Atom                 Charge (a.u.)
  ----------------------------------------
      1 C                     0.191097
      2 O                    -0.299411
      3 H                     0.054157
      4 H                     0.054157
  ----------------------------------------
  Sum of atomic charges =     0.000000

 -----------------------------------------------------------------
                    Cartesian Multipole Moments
 -----------------------------------------------------------------
    Charge (ESU x 10^10)
                 0.0000
    Dipole Moment (Debye)
         X       2.2241      Y      -0.0000      Z       0.0000
       Tot       2.2241
    Quadrupole Moments (Debye-Ang)
        XX     -12.1866     XY      -0.0000     YY     -11.6807
        XZ      -0.0000     YZ      -0.0000     ZZ     -11.4786
    Octopole Moments (Debye-Ang^2)
       XXX      -1.1977    XXY       0.0000    XYY      -0.0089
       YYY       0.0001    XXZ      -0.0000    XYZ      -0.0000
       YYZ       0.0000    XZZ      -0.7820    YZZ       0.0000
       ZZZ      -0.0000
    Hexadecapole Moments (Debye-Ang^3)
      XXXX     -45.5343   XXXY       0.0000   XXYY     -10.5600
      XYYY       0.0000   YYYY     -18.9344   XXXZ      -0.0000
      XXYZ      -0.0000   XYYZ       0.0000   YYYZ      -0.0000
      XXZZ      -9.1362   XYZZ       0.0000   YYZZ      -5.0423
      XZZZ      -0.0000   YZZZ      -0.0000   ZZZZ      -9.8957
 -----------------------------------------------------------------
 Calculating analytic gradient of the SCF energy
 Gradient of SCF Energy
            1           2           3           4
    1  -0.0010215   0.0000196   0.0005007   0.0005012
    2  -0.0000002   0.0000003  -0.0005499   0.0005498
    3   0.0000000  -0.0000000   0.0000000  -0.0000000
 Max gradient component =       1.022E-03
 RMS gradient           =       4.233E-04
 Gradient time:  CPU 2.82 s  wall 0.72 s
 Geometry Optimization Parameters
   NAtoms,    NIC,     NZ,  NCons,   NDum,   NFix, NCnnct, MaxDiis
        4      17       0       0       0       0       0       0

 Cartesian Hessian Update
 Hessian updated using BFGS update


** GEOMETRY OPTIMIZATION IN CARTESIAN COORDINATES **
   Searching for a Minimum

   Optimization Cycle:   5

                       Coordinates (Angstroms)
     ATOM                X               Y               Z
      1  C         0.5223371027   -0.0000024050    0.0000000000
      2  O        -0.6676609083   -0.0000012233    0.0000000000
      3  H         1.1257153582    0.9342773826    0.0000000000
      4  H         1.1257171369   -0.9342816456    0.0000000000
   Point Group: cs    Number of degrees of freedom:     5


   Energy is   -114.484239580


 Translations and Rotations Projected Out of Hessian

  4 Hessian modes will be used to form the next step
  Hessian Eigenvalues:
     0.207229    1.000000    1.009132    3.029693

 Minimum search - taking simple RFO step
 Searching for Lamda that Minimizes Along All modes
 Value Taken    Lamda =  -0.00000665
 Step Taken.  Stepsize is  0.005555

                             Maximum     Tolerance    Cnvgd?
         Gradient           0.001022      0.000300      NO
         Displacement       0.002576      0.001200      NO
         Energy change     -0.000003      0.000001      NO

 ----------------------------------------------------------------
             Standard Nuclear Orientation (Angstroms)
    I     Atom           X                Y                Z
 ----------------------------------------------------------------
    1      C       0.5233295482    -0.0000022719     0.0000000000
    2      O      -0.6662977653    -0.0000018951     0.0000000000
    3      H       1.1245381641     0.9355071388     0.0000000000
    4      H       1.1245387426    -0.9355108632     0.0000000000
 ----------------------------------------------------------------
 Molecular Point Group                 Cs    NOp =  2
 Largest Abelian Subgroup              Cs    NOp =  2
 Nuclear Repulsion Energy =          31.53536899 hartrees
 There are        8 alpha and        8 beta electrons
 Applying Cartesian multipole field
    Component          Value
    ---------          -----
     (2,0,0)        1.00000E-10
     (0,2,0)        2.00000E-10
     (0,0,2)       -3.00000E-10
 Nucleus-field energy     =     0.0000000040 hartrees
 Requested basis set is def2-TZVP
 There are 30 shells and 74 basis functions
 A cutoff of  1.0D-10 yielded    464 shell pairs
 There are      2880 function pairs (      3743 Cartesian)
 Smallest overlap matrix eigenvalue = 1.38E-03
 Guess MOs from SCF MO coefficient file

 -----------------------------------------------------------------------
  General SCF calculation program by
  Eric Jon Sundstrom, Paul Horn, Yuezhi Mao, Dmitri Zuev, Alec White,
  David Stuck, Shaama M.S., Shane Yost, Joonho Lee, David Small,
  Daniel Levine, Susi Lehtola, Hugh Burton, Evgeny Epifanovsky
 -----------------------------------------------------------------------
 Exchange:     0.2700 Hartree-Fock + 1.0000 M06
 Correlation:  1.0000 M06
 Using SG-3 standard quadrature grid
 using 4 threads for integral computing
 -------------------------------------------------------
 OpenMP Integral computing Module                
 Release: version 2.0, May 2017, Q-Chem Inc. Pleasanton 
 -------------------------------------------------------
 A restricted SCF calculation will be
 performed using DIIS
 SCF converges when DIIS error is below 1.0e-07
 ---------------------------------------
  Cycle       Energy         DIIS error
 ---------------------------------------
    1    -114.4842434523      2.80e-05  
    2    -114.4842438047      1.37e-05  
    3    -114.4842437392      1.81e-05  
    4    -114.4842438986      1.53e-06  
    5    -114.4842438996      2.87e-07  
    6    -114.4842438992      4.91e-08  Convergence criterion met
 ---------------------------------------
 SCF time:   CPU 5.87s  wall 2.00s 
 SCF   energy in the final basis set =     -114.4842438992
 Total energy in the final basis set =     -114.4842438992
 
 --------------------------------------------------------------
             Orbital Energies (a.u.) and Symmetries
 --------------------------------------------------------------
 
 Alpha MOs, Restricted
 -- Occupied --                  
-19.230 -10.339  -1.094  -0.648  -0.514  -0.474  -0.428  -0.289
  1 A'    2 A'    3 A'    4 A'    5 A'    6 A'    1 A"    7 A'                 
 -- Virtual --                   
 -0.044   0.054   0.110   0.112   0.211   0.211   0.256   0.379
  2 A"    8 A'    9 A'   10 A'   11 A'    3 A"   12 A'   13 A'                 
  0.403   0.406   0.487   0.509   0.576   0.592   0.682   0.787
 14 A'   15 A'   16 A'    4 A"    5 A"   17 A'   18 A'    6 A"                 
  0.793   0.932   1.061   1.292   1.338   1.437   1.440   1.443
 19 A'   20 A'   21 A'   22 A'    7 A"   23 A'   24 A'    8 A"                 
  1.575   1.633   1.737   1.901   1.940   1.945   1.992   2.165
 25 A'   26 A'    9 A"   10 A"   11 A"   27 A'   28 A'   29 A'                 
  2.270   2.391   2.477   2.529   2.625   2.842   2.929   2.935
 30 A'   31 A'   32 A'   33 A'   12 A"   13 A"   14 A"   34 A'                 
  2.961   3.010   3.016   3.113   3.132   3.201   3.552   3.646
 35 A'   15 A"   36 A'   37 A'   16 A"   38 A'   17 A"   39 A'                 
  3.654   3.784   3.939   4.291   5.172   5.182   5.505   5.632
 40 A'   41 A'   42 A'   43 A'   18 A"   44 A'   19 A"   45 A'                 
  6.062   6.240   6.304   6.344   6.417   6.769   6.815   7.030
 20 A"   46 A'   47 A'   21 A"   48 A'   22 A"   49 A'   50 A'                 
 22.348  43.496
 51 A'   52 A'                                                                 
 
 Beta MOs, Restricted
 -- Occupied --                  
-19.230 -10.339  -1.094  -0.648  -0.514  -0.474  -0.428  -0.289
  1 A'    2 A'    3 A'    4 A'    5 A'    6 A'    1 A"    7 A'                 
 -- Virtual --                   
 -0.044   0.054   0.110   0.112   0.211   0.211   0.256   0.379
  2 A"    8 A'    9 A'   10 A'   11 A'    3 A"   12 A'   13 A'                 
  0.403   0.406   0.487   0.509   0.576   0.592   0.682   0.787
 14 A'   15 A'   16 A'    4 A"    5 A"   17 A'   18 A'    6 A"                 
  0.793   0.932   1.061   1.292   1.338   1.437   1.440   1.443
 19 A'   20 A'   21 A'   22 A'    7 A"   23 A'   24 A'    8 A"                 
  1.575   1.633   1.737   1.901   1.940   1.945   1.992   2.165
 25 A'   26 A'    9 A"   10 A"   11 A"   27 A'   28 A'   29 A'                 
  2.270   2.391   2.477   2.529   2.625   2.842   2.929   2.935
 30 A'   31 A'   32 A'   33 A'   12 A"   13 A"   14 A"   34 A'                 
  2.961   3.010   3.016   3.113   3.132   3.201   3.552   3.646
 35 A'   15 A"   36 A'   37 A'   16 A"   38 A'   17 A"   39 A'                 
  3.654   3.784   3.939   4.291   5.172   5.182   5.505   5.632
 40 A'   41 A'   42 A'   43 A'   18 A"   44 A'   19 A"   45 A'                 
  6.062   6.240   6.304   6.344   6.417   6.769   6.815   7.030
 20 A"   46 A'   47 A'   21 A"   48 A'   22 A"   49 A'   50 A'                 
 22.348  43.496
 51 A'   52 A'                                                                 
 --------------------------------------------------------------
 
          Ground-State Mulliken Net Atomic Charges

     Atom                 Charge (a.u.)
  ----------------------------------------
      1 C                     0.190611
      2 O                    -0.298993
      3 H                     0.054191
      4 H                     0.054191
  ----------------------------------------
  Sum of atomic charges =     0.000000

 -----------------------------------------------------------------
                    Cartesian Multipole Moments
 -----------------------------------------------------------------
    Charge (ESU x 10^10)
                 0.0000
    Dipole Moment (Debye)
         X       2.2221      Y      -0.0000      Z      -0.0000
       Tot       2.2221
    Quadrupole Moments (Debye-Ang)
        XX     -12.1889     XY      -0.0000     YY     -11.6731
        XZ      -0.0000     YZ      -0.0000     ZZ     -11.4779
    Octopole Moments (Debye-Ang^2)
       XXX      -1.2426    XXY       0.0000    XYY      -0.0156
       YYY       0.0001    XXZ      -0.0000    XYZ      -0.0000
       YYZ      -0.0000    XZZ      -0.7921    YZZ       0.0000
       ZZZ      -0.0000
    Hexadecapole Moments (Debye-Ang^3)
      XXXX     -45.5048   XXXY      -0.0000   XXYY     -10.5533
      XYYY       0.0000   YYYY     -18.9360   XXXZ      -0.0000
      XXYZ      -0.0000   XYYZ      -0.0000   YYYZ      -0.0000
      XXZZ      -9.1278   XYZZ       0.0000   YYZZ      -5.0443
      XZZZ      -0.0000   YZZZ      -0.0000   ZZZZ      -9.8948
 -----------------------------------------------------------------
 Calculating analytic gradient of the SCF energy
 Gradient of SCF Energy
            1           2           3           4
    1  -0.0011601   0.0009372   0.0001114   0.0001115
    2  -0.0000003   0.0000001  -0.0003726   0.0003728
    3  -0.0000000   0.0000000   0.0000000  -0.0000000
 Max gradient component =       1.160E-03
 RMS gradient           =       4.589E-04
 Gradient time:  CPU 2.81 s  wall 0.72 s
 Geometry Optimization Parameters
   NAtoms,    NIC,     NZ,  NCons,   NDum,   NFix, NCnnct, MaxDiis
        4      17       0       0       0       0       0       0

 Cartesian Hessian Update
 Hessian updated using BFGS update


** GEOMETRY OPTIMIZATION IN CARTESIAN COORDINATES **
   Searching for a Minimum

   Optimization Cycle:   6

                       Coordinates (Angstroms)
     ATOM                X               Y               Z
      1  C         0.5233295482   -0.0000022719    0.0000000000
      2  O        -0.6662977653   -0.0000018951    0.0000000000
      3  H         1.1245381641    0.9355071388    0.0000000000
      4  H         1.1245387426   -0.9355108632    0.0000000000
   Point Group: cs    Number of degrees of freedom:     5


   Energy is   -114.484243899


 Translations and Rotations Projected Out of Hessian

  3 Hessian modes will be used to form the next step
  Hessian Eigenvalues:
     0.143530    1.025489    3.016976

 Minimum search - taking simple RFO step
 Searching for Lamda that Minimizes Along All modes
 Value Taken    Lamda =  -0.00000214
 Step Taken.  Stepsize is  0.003088

                             Maximum     Tolerance    Cnvgd?
         Gradient           0.001160      0.000300      NO
         Displacement       0.001507      0.001200      NO
         Energy change     -0.000004      0.000001      NO

 ----------------------------------------------------------------
             Standard Nuclear Orientation (Angstroms)
    I     Atom           X                Y                Z
 ----------------------------------------------------------------
    1      C       0.5240450011    -0.0000020428     0.0000000000
    2      O      -0.6658460108    -0.0000022629     0.0000000000
    3      H       1.1239548387     0.9363048621     0.0000000000
    4      H       1.1239548605    -0.9363084477     0.0000000000
 ----------------------------------------------------------------
 Molecular Point Group                 Cs    NOp =  2
 Largest Abelian Subgroup              Cs    NOp =  2
 Nuclear Repulsion Energy =          31.53168840 hartrees
 There are        8 alpha and        8 beta electrons
 Applying Cartesian multipole field
    Component          Value
    ---------          -----
     (2,0,0)        1.00000E-10
     (0,2,0)        2.00000E-10
     (0,0,2)       -3.00000E-10
 Nucleus-field energy     =     0.0000000040 hartrees
 Requested basis set is def2-TZVP
 There are 30 shells and 74 basis functions
 A cutoff of  1.0D-10 yielded    464 shell pairs
 There are      2880 function pairs (      3743 Cartesian)
 Smallest overlap matrix eigenvalue = 1.39E-03
 Guess MOs from SCF MO coefficient file

 -----------------------------------------------------------------------
  General SCF calculation program by
  Eric Jon Sundstrom, Paul Horn, Yuezhi Mao, Dmitri Zuev, Alec White,
  David Stuck, Shaama M.S., Shane Yost, Joonho Lee, David Small,
  Daniel Levine, Susi Lehtola, Hugh Burton, Evgeny Epifanovsky
 -----------------------------------------------------------------------
 Exchange:     0.2700 Hartree-Fock + 1.0000 M06
 Correlation:  1.0000 M06
 Using SG-3 standard quadrature grid
 using 4 threads for integral computing
 -------------------------------------------------------
 OpenMP Integral computing Module                
 Release: version 2.0, May 2017, Q-Chem Inc. Pleasanton 
 -------------------------------------------------------
 A restricted SCF calculation will be
 performed using DIIS
 SCF converges when DIIS error is below 1.0e-07
 ---------------------------------------
  Cycle       Energy         DIIS error
 ---------------------------------------
    1    -114.4842450318      1.95e-05  
    2    -114.4842452063      1.28e-05  
    3    -114.4842452086      1.20e-05  
    4    -114.4842452788      1.35e-06  
    5    -114.4842452797      2.87e-07  
    6    -114.4842452797      4.37e-08  Convergence criterion met
 ---------------------------------------
 SCF time:   CPU 5.88s  wall 2.00s 
 SCF   energy in the final basis set =     -114.4842452797
 Total energy in the final basis set =     -114.4842452797
 
 --------------------------------------------------------------
             Orbital Energies (a.u.) and Symmetries
 --------------------------------------------------------------
 
 Alpha MOs, Restricted
 -- Occupied --                  
-19.230 -10.339  -1.094  -0.648  -0.514  -0.474  -0.428  -0.289
  1 A'    2 A'    3 A'    4 A'    5 A'    6 A'    1 A"    7 A'                 
 -- Virtual --                   
 -0.044   0.054   0.110   0.112   0.211   0.211   0.256   0.379
  2 A"    8 A'    9 A'   10 A'   11 A'    3 A"   12 A'   13 A'                 
  0.404   0.406   0.486   0.509   0.576   0.592   0.682   0.787
 14 A'   15 A'   16 A'    4 A"    5 A"   17 A'   18 A'    6 A"                 
  0.793   0.932   1.061   1.292   1.338   1.438   1.440   1.444
 19 A'   20 A'   21 A'   22 A'    7 A"   23 A'   24 A'    8 A"                 
  1.575   1.633   1.736   1.901   1.941   1.944   1.992   2.165
 25 A'   26 A'    9 A"   10 A"   11 A"   27 A'   28 A'   29 A'                 
  2.270   2.390   2.477   2.529   2.625   2.842   2.929   2.935
 30 A'   31 A'   32 A'   33 A'   12 A"   13 A"   14 A"   34 A'                 
  2.961   3.011   3.017   3.113   3.131   3.201   3.552   3.646
 35 A'   15 A"   36 A'   37 A'   16 A"   38 A'   17 A"   39 A'                 
  3.654   3.782   3.939   4.290   5.172   5.182   5.505   5.631
 40 A'   41 A'   42 A'   43 A'   18 A"   44 A'   19 A"   45 A'                 
  6.061   6.239   6.303   6.344   6.418   6.769   6.815   7.030
 20 A"   46 A'   47 A'   21 A"   48 A'   22 A"   49 A'   50 A'                 
 22.348  43.496
 51 A'   52 A'                                                                 
 
 Beta MOs, Restricted
 -- Occupied --                  
-19.230 -10.339  -1.094  -0.648  -0.514  -0.474  -0.428  -0.289
  1 A'    2 A'    3 A'    4 A'    5 A'    6 A'    1 A"    7 A'                 
 -- Virtual --                   
 -0.044   0.054   0.110   0.112   0.211   0.211   0.256   0.379
  2 A"    8 A'    9 A'   10 A'   11 A'    3 A"   12 A'   13 A'                 
  0.404   0.406   0.486   0.509   0.576   0.592   0.682   0.787
 14 A'   15 A'   16 A'    4 A"    5 A"   17 A'   18 A'    6 A"                 
  0.793   0.932   1.061   1.292   1.338   1.438   1.440   1.444
 19 A'   20 A'   21 A'   22 A'    7 A"   23 A'   24 A'    8 A"                 
  1.575   1.633   1.736   1.901   1.941   1.944   1.992   2.165
 25 A'   26 A'    9 A"   10 A"   11 A"   27 A'   28 A'   29 A'                 
  2.270   2.390   2.477   2.529   2.625   2.842   2.929   2.935
 30 A'   31 A'   32 A'   33 A'   12 A"   13 A"   14 A"   34 A'                 
  2.961   3.011   3.017   3.113   3.131   3.201   3.552   3.646
 35 A'   15 A"   36 A'   37 A'   16 A"   38 A'   17 A"   39 A'                 
  3.654   3.782   3.939   4.290   5.172   5.182   5.505   5.631
 40 A'   41 A'   42 A'   43 A'   18 A"   44 A'   19 A"   45 A'                 
  6.061   6.239   6.303   6.344   6.418   6.769   6.815   7.030
 20 A"   46 A'   47 A'   21 A"   48 A'   22 A"   49 A'   50 A'                 
 22.348  43.496
 51 A'   52 A'                                                                 
 --------------------------------------------------------------
 
          Ground-State Mulliken Net Atomic Charges

     Atom                 Charge (a.u.)
  ----------------------------------------
      1 C                     0.190480
      2 O                    -0.299280
      3 H                     0.054400
      4 H                     0.054400
  ----------------------------------------
  Sum of atomic charges =     0.000000

 -----------------------------------------------------------------
                    Cartesian Multipole Moments
 -----------------------------------------------------------------
    Charge (ESU x 10^10)
                 0.0000
    Dipole Moment (Debye)
         X       2.2232      Y      -0.0000      Z      -0.0000
       Tot       2.2232
    Quadrupole Moments (Debye-Ang)
        XX     -12.1896     XY      -0.0000     YY     -11.6683
        XZ      -0.0000     YZ       0.0000     ZZ     -11.4790
    Octopole Moments (Debye-Ang^2)
       XXX      -1.2614    XXY       0.0000    XYY      -0.0150
       YYY       0.0001    XXZ      -0.0000    XYZ       0.0000
       YYZ      -0.0000    XZZ      -0.7964    YZZ       0.0000
       ZZZ       0.0000
    Hexadecapole Moments (Debye-Ang^3)
      XXXX     -45.5047   XXXY      -0.0000   XXYY     -10.5499
      XYYY      -0.0000   YYYY     -18.9345   XXXZ       0.0000
      XXYZ       0.0000   XYYZ      -0.0000   YYYZ       0.0000
      XXZZ      -9.1267   XYZZ      -0.0000   YYZZ      -5.0460
      XZZZ       0.0000   YZZZ       0.0000   ZZZZ      -9.8973
 -----------------------------------------------------------------
 Calculating analytic gradient of the SCF energy
 Gradient of SCF Energy
            1           2           3           4
    1  -0.0004781   0.0006206  -0.0000712  -0.0000713
    2  -0.0000002  -0.0000000  -0.0002200   0.0002202
    3  -0.0000000   0.0000000  -0.0000000  -0.0000000
 Max gradient component =       6.206E-04
 RMS gradient           =       2.451E-04
 Gradient time:  CPU 2.79 s  wall 0.71 s
 Geometry Optimization Parameters
   NAtoms,    NIC,     NZ,  NCons,   NDum,   NFix, NCnnct, MaxDiis
        4      17       0       0       0       0       0       0

 Cartesian Hessian Update
 Hessian updated using BFGS update


** GEOMETRY OPTIMIZATION IN CARTESIAN COORDINATES **
   Searching for a Minimum

   Optimization Cycle:   7

                       Coordinates (Angstroms)
     ATOM                X               Y               Z
      1  C         0.5240450011   -0.0000020428    0.0000000000
      2  O        -0.6658460108   -0.0000022629    0.0000000000
      3  H         1.1239548387    0.9363048621    0.0000000000
      4  H         1.1239548605   -0.9363084477    0.0000000000
   Point Group: cs    Number of degrees of freedom:     5


   Energy is   -114.484245280


 Translations and Rotations Projected Out of Hessian

  5 Hessian modes will be used to form the next step
  Hessian Eigenvalues:
     0.137796    0.977013    1.000000    1.000000    2.337259

 Minimum search - taking simple RFO step
 Searching for Lamda that Minimizes Along All modes
 Value Taken    Lamda =   0.00000000
 Step Taken.  Stepsize is  0.001101

                             Maximum     Tolerance    Cnvgd?
         Gradient           0.000621      0.000300      NO
         Displacement       0.000672      0.001200     YES
         Energy change     -0.000001      0.000001      NO

 ----------------------------------------------------------------
             Standard Nuclear Orientation (Angstroms)
    I     Atom           X                Y                Z
 ----------------------------------------------------------------
    1      C       0.5242950167    -0.0000019106     0.0000000000
    2      O      -0.6658828856    -0.0000023470     0.0000000000
    3      H       1.1238483064     0.9366604613     0.0000000000
    4      H       1.1238482521    -0.9366640949     0.0000000000
 ----------------------------------------------------------------
 Molecular Point Group                 Cs    NOp =  2
 Largest Abelian Subgroup              Cs    NOp =  2
 Nuclear Repulsion Energy =          31.52567119 hartrees
 There are        8 alpha and        8 beta electrons
 Applying Cartesian multipole field
    Component          Value
    ---------          -----
     (2,0,0)        1.00000E-10
     (0,2,0)        2.00000E-10
     (0,0,2)       -3.00000E-10
 Nucleus-field energy     =     0.0000000040 hartrees
 Requested basis set is def2-TZVP
 There are 30 shells and 74 basis functions
 A cutoff of  1.0D-10 yielded    464 shell pairs
 There are      2880 function pairs (      3743 Cartesian)
 Smallest overlap matrix eigenvalue = 1.39E-03
 Guess MOs from SCF MO coefficient file

 -----------------------------------------------------------------------
  General SCF calculation program by
  Eric Jon Sundstrom, Paul Horn, Yuezhi Mao, Dmitri Zuev, Alec White,
  David Stuck, Shaama M.S., Shane Yost, Joonho Lee, David Small,
  Daniel Levine, Susi Lehtola, Hugh Burton, Evgeny Epifanovsky
 -----------------------------------------------------------------------
 Exchange:     0.2700 Hartree-Fock + 1.0000 M06
 Correlation:  1.0000 M06
 Using SG-3 standard quadrature grid
 using 4 threads for integral computing
 -------------------------------------------------------
 OpenMP Integral computing Module                
 Release: version 2.0, May 2017, Q-Chem Inc. Pleasanton 
 -------------------------------------------------------
 A restricted SCF calculation will be
 performed using DIIS
 SCF converges when DIIS error is below 1.0e-07
 ---------------------------------------
  Cycle       Energy         DIIS error
 ---------------------------------------
    1    -114.4842455209      1.26e-05  
    2    -114.4842455897      5.88e-06  
    3    -114.4842455890      5.71e-06  
    4    -114.4842456035      1.54e-06  
    5    -114.4842456047      1.95e-07  
    6    -114.4842456049      2.26e-08  Convergence criterion met
 ---------------------------------------
 SCF time:   CPU 5.87s  wall 1.00s 
 SCF   energy in the final basis set =     -114.4842456049
 Total energy in the final basis set =     -114.4842456049
 
 --------------------------------------------------------------
             Orbital Energies (a.u.) and Symmetries
 --------------------------------------------------------------
 
 Alpha MOs, Restricted
 -- Occupied --                  
-19.230 -10.339  -1.093  -0.648  -0.514  -0.474  -0.428  -0.289
  1 A'    2 A'    3 A'    4 A'    5 A'    6 A'    1 A"    7 A'                 
 -- Virtual --                   
 -0.044   0.054   0.110   0.112   0.211   0.211   0.256   0.378
  2 A"    8 A'    9 A'   10 A'   11 A'    3 A"   12 A'   13 A'                 
  0.404   0.406   0.486   0.509   0.576   0.592   0.682   0.787
 14 A'   15 A'   16 A'    4 A"    5 A"   17 A'   18 A'    6 A"                 
  0.793   0.931   1.061   1.291   1.338   1.438   1.440   1.444
 19 A'   20 A'   21 A'   22 A'    7 A"   23 A'   24 A'    8 A"                 
  1.575   1.633   1.735   1.901   1.941   1.944   1.992   2.165
 25 A'   26 A'    9 A"   10 A"   11 A"   27 A'   28 A'   29 A'                 
  2.270   2.389   2.477   2.528   2.625   2.842   2.929   2.935
 30 A'   31 A'   32 A'   33 A'   12 A"   13 A"   14 A"   34 A'                 
  2.961   3.011   3.016   3.113   3.131   3.201   3.552   3.646
 35 A'   15 A"   36 A'   37 A'   16 A"   38 A'   17 A"   39 A'                 
  3.653   3.782   3.939   4.290   5.172   5.182   5.504   5.631
 40 A'   41 A'   42 A'   43 A'   18 A"   44 A'   19 A"   45 A'                 
  6.061   6.238   6.302   6.344   6.418   6.769   6.815   7.030
 20 A"   46 A'   47 A'   21 A"   48 A'   22 A"   49 A'   50 A'                 
 22.347  43.496
 51 A'   52 A'                                                                 
 
 Beta MOs, Restricted
 -- Occupied --                  
-19.230 -10.339  -1.093  -0.648  -0.514  -0.474  -0.428  -0.289
  1 A'    2 A'    3 A'    4 A'    5 A'    6 A'    1 A"    7 A'                 
 -- Virtual --                   
 -0.044   0.054   0.110   0.112   0.211   0.211   0.256   0.378
  2 A"    8 A'    9 A'   10 A'   11 A'    3 A"   12 A'   13 A'                 
  0.404   0.406   0.486   0.509   0.576   0.592   0.682   0.787
 14 A'   15 A'   16 A'    4 A"    5 A"   17 A'   18 A'    6 A"                 
  0.793   0.931   1.061   1.291   1.338   1.438   1.440   1.444
 19 A'   20 A'   21 A'   22 A'    7 A"   23 A'   24 A'    8 A"                 
  1.575   1.633   1.735   1.901   1.941   1.944   1.992   2.165
 25 A'   26 A'    9 A"   10 A"   11 A"   27 A'   28 A'   29 A'                 
  2.270   2.389   2.477   2.528   2.625   2.842   2.929   2.935
 30 A'   31 A'   32 A'   33 A'   12 A"   13 A"   14 A"   34 A'                 
  2.961   3.011   3.016   3.113   3.131   3.201   3.552   3.646
 35 A'   15 A"   36 A'   37 A'   16 A"   38 A'   17 A"   39 A'                 
  3.653   3.782   3.939   4.290   5.172   5.182   5.504   5.631
 40 A'   41 A'   42 A'   43 A'   18 A"   44 A'   19 A"   45 A'                 
  6.061   6.238   6.302   6.344   6.418   6.769   6.815   7.030
 20 A"   46 A'   47 A'   21 A"   48 A'   22 A"   49 A'   50 A'                 
 22.347  43.496
 51 A'   52 A'                                                                 
 --------------------------------------------------------------
 
          Ground-State Mulliken Net Atomic Charges

     Atom                 Charge (a.u.)
  ----------------------------------------
      1 C                     0.190474
      2 O                    -0.299582
      3 H                     0.054554
      4 H                     0.054554
  ----------------------------------------
  Sum of atomic charges =     0.000000

 -----------------------------------------------------------------
                    Cartesian Multipole Moments
 -----------------------------------------------------------------
    Charge (ESU x 10^10)
                 0.0000
    Dipole Moment (Debye)
         X       2.2244      Y       0.0000      Z      -0.0000
       Tot       2.2244
    Quadrupole Moments (Debye-Ang)
        XX     -12.1897     XY      -0.0000     YY     -11.6667
        XZ       0.0000     YZ      -0.0000     ZZ     -11.4802
    Octopole Moments (Debye-Ang^2)
       XXX      -1.2640    XXY       0.0000    XYY      -0.0128
       YYY       0.0001    XXZ      -0.0000    XYZ       0.0000
       YYZ      -0.0000    XZZ      -0.7971    YZZ       0.0000
       ZZZ      -0.0000
    Hexadecapole Moments (Debye-Ang^3)
      XXXX     -45.5145   XXXY      -0.0000   XXYY     -10.5495
      XYYY      -0.0000   YYYY     -18.9353   XXXZ       0.0000
      XXYZ       0.0000   XYYZ      -0.0000   YYYZ       0.0000
      XXZZ      -9.1285   XYZZ      -0.0000   YYZZ      -5.0472
      XZZZ       0.0000   YZZZ       0.0000   ZZZZ      -9.8997
 -----------------------------------------------------------------
 Calculating analytic gradient of the SCF energy
 Gradient of SCF Energy
            1           2           3           4
    1   0.0000162   0.0001438  -0.0000799  -0.0000800
    2  -0.0000000  -0.0000001  -0.0001067   0.0001068
    3   0.0000000   0.0000000  -0.0000000   0.0000000
 Max gradient component =       1.438E-04
 RMS gradient           =       6.862E-05
 Gradient time:  CPU 2.81 s  wall 0.72 s
 Geometry Optimization Parameters
   NAtoms,    NIC,     NZ,  NCons,   NDum,   NFix, NCnnct, MaxDiis
        4      17       0       0       0       0       0       0

 Cartesian Hessian Update
 Hessian updated using BFGS update


** GEOMETRY OPTIMIZATION IN CARTESIAN COORDINATES **
   Searching for a Minimum

   Optimization Cycle:   8

                       Coordinates (Angstroms)
     ATOM                X               Y               Z
[...]
 VCI[3] |  0  1  2  0  0  0 >    4390.16 
 VCI[3] |  0  2  0  1  0  0 >    4467.39 
 VCI[3] |  0  0  3  0  0  0 >    4638.53 
 VCI[3] |  1  0  1  1  0  0 >    4661.31 
 VCI[3] |  0  0  0  1  1  0 >    4673.50 
 VCI[3] |  0  0  0  1  0  1 >    4686.04 
 VCI[3] |  0  1  1  1  0  0 >    4758.69 
 VCI[3] |  0  0  2  1  0  0 >    5024.99 
 VCI[3] |  1  0  0  2  0  0 >    5085.68 
 VCI[3] |  0  1  0  2  0  0 >    5172.82 
 VCI[3] |  2  0  0  0  1  0 >    5198.87 
 VCI[3] |  2  0  0  0  0  1 >    5231.34 
 VCI[3] |  1  1  0  0  1  0 >    5320.73 
 VCI[3] |  1  1  0  0  0  1 >    5344.25 
 VCI[3] |  0  2  0  0  1  0 >    5409.64 
 VCI[3] |  0  2  0  0  0  1 >    5445.49 
 VCI[3] |  0  0  1  2  0  0 >    5462.85 
 VCI[3] |  1  0  1  0  1  0 >    5605.35 
 VCI[3] |  1  0  1  0  0  1 >    5614.81 
 VCI[3] |  0  0  0  0  2  0 >    5621.06 
 VCI[3] |  0  0  0  0  0  2 >    5638.25 
 VCI[3] |  0  0  0  0  1  1 >    5639.05 
 VCI[3] |  0  1  1  0  1  0 >    5722.32 
 VCI[3] |  0  1  1  0  0  1 >    5736.63 
 VCI[3] |  0  0  0  3  0  0 >    5968.93 
 VCI[3] |  0  0  2  0  0  1 >    5999.83 
 VCI[3] |  1  0  0  1  1  0 >    6004.33 
 VCI[3] |  0  0  2  0  1  0 >    6005.21 
 VCI[3] |  1  0  0  1  0  1 >    6016.24 
 VCI[3] |  0  1  0  1  1  0 >    6112.79 
 VCI[3] |  0  1  0  1  0  1 >    6126.51 
 VCI[3] |  0  0  1  1  0  1 >    6411.60 
 VCI[3] |  0  0  1  1  1  0 >    6413.23 
 VCI[3] |  0  0  0  2  0  1 >    6858.31 
 VCI[3] |  0  0  0  2  1  0 >    6864.63 
 VCI[3] |  1  0  0  0  0  2 >    7014.06 
 VCI[3] |  0  1  0  0  0  2 >    7145.59 
 VCI[3] |  1  0  0  0  2  0 >    7309.33 
 VCI[3] |  1  0  0  0  1  1 >    7311.05 
 VCI[3] |  0  0  1  0  0  2 >    7442.52 
 VCI[3] |  0  1  0  0  2  0 >    7450.12 
 VCI[3] |  0  1  0  0  1  1 >    7453.04 
 VCI[3] |  0  0  1  0  1  1 >    7763.17 
 VCI[3] |  0  0  1  0  2  0 >    7764.68 
 VCI[3] |  0  0  0  1  0  2 >    7877.89 
 VCI[3] |  0  0  0  1  1  1 >    8201.82 
 VCI[3] |  0  0  0  1  2  0 >    8203.04 
 VCI[3] |  0  0  0  0  0  3 >    9137.05 
 VCI[3] |  0  0  0  0  3  0 >    9416.50 
 VCI[3] |  0  0  0  0  2  1 >   10069.10 
 VCI[3] |  0  0  0  0  1  2 >   10085.94 
 -----------------------------------------------------------
 VCI[3] construnction time:  CPU    0.11 s  wall    0.03 s
 -----------------------------------------------------------
 VCI[4] |  1  0  0  0  0  0 >    1182.10 
 VCI[4] |  0  1  0  0  0  0 >    1256.78 
 VCI[4] |  0  0  1  0  0  0 >    1514.40 
 VCI[4] |  0  0  0  1  0  0 >    1855.24 
 VCI[4] |  2  0  0  0  0  0 >    2389.60 
 VCI[4] |  1  1  0  0  0  0 >    2471.78 
 VCI[4] |  0  2  0  0  0  0 >    2539.59 
 VCI[4] |  1  0  1  0  0  0 >    2725.49 
 VCI[4] |  0  0  0  0  1  0 >    2758.58 
 VCI[4] |  0  0  0  0  0  1 >    2772.97 
 VCI[4] |  0  1  1  0  0  0 >    2808.40 
 VCI[4] |  0  0  2  0  0  0 >    3056.79 
 VCI[4] |  1  0  0  1  0  0 >    3058.69 
 VCI[4] |  0  1  0  1  0  0 >    3132.76 
 VCI[4] |  0  0  1  1  0  0 >    3389.50 
 VCI[4] |  3  0  0  0  0  0 >    3571.81 
 VCI[4] |  2  1  0  0  0  0 >    3664.48 
 VCI[4] |  0  0  0  2  0  0 >    3724.49 
 VCI[4] |  1  2  0  0  0  0 >    3742.21 
 VCI[4] |  0  3  0  0  0  0 >    3804.68 
 VCI[4] |  2  0  1  0  0  0 >    3916.37 
 VCI[4] |  1  0  0  0  0  1 >    3950.45 
 VCI[4] |  1  0  0  0  1  0 >    3972.93 
 VCI[4] |  1  1  1  0  0  0 >    4008.30 
 VCI[4] |  0  1  0  0  0  1 >    4037.04 
 VCI[4] |  0  1  0  0  1  0 >    4046.72 
 VCI[4] |  0  2  1  0  0  0 >    4085.55 
 VCI[4] |  2  0  0  1  0  0 >    4241.93 
 VCI[4] |  1  0  2  0  0  0 >    4253.92 
 VCI[4] |  0  0  1  0  1  0 >    4286.84 
 VCI[4] |  0  0  1  0  0  1 >    4290.01 
 VCI[4] |  1  1  0  1  0  0 >    4323.89 
 VCI[4] |  0  1  2  0  0  0 >    4347.14 
 VCI[4] |  0  2  0  1  0  0 >    4394.57 
 VCI[4] |  1  0  1  1  0  0 >    4578.55 
 VCI[4] |  0  0  3  0  0  0 >    4587.10 
 VCI[4] |  0  0  0  1  1  0 >    4652.00 
 VCI[4] |  0  1  1  1  0  0 >    4663.64 
 VCI[4] |  0  0  0  1  0  1 >    4669.75 
 VCI[4] |  4  0  0  0  0  0 >    4756.05 
 VCI[4] |  3  1  0  0  0  0 >    4857.90 
 VCI[4] |  1  0  0  2  0  0 >    4909.74 
 VCI[4] |  0  0  2  1  0  0 >    4913.44 
 VCI[4] |  2  2  0  0  0  0 >    4950.52 
 VCI[4] |  0  1  0  2  0  0 >    4986.27 
 VCI[4] |  1  3  0  0  0  0 >    5028.57 
 VCI[4] |  0  4  0  0  0  0 >    5088.95 
 VCI[4] |  2  0  0  0  0  1 >    5112.82 
 VCI[4] |  3  0  1  0  0  0 >    5115.08 
 VCI[4] |  2  0  0  0  1  0 >    5180.57 
 VCI[4] |  1  1  0  0  0  1 >    5199.65 
 VCI[4] |  2  1  1  0  0  0 >    5220.30 
 VCI[4] |  0  0  1  2  0  0 >    5248.21 
 VCI[4] |  1  1  0  0  1  0 >    5253.93 
 VCI[4] |  0  2  0  0  0  1 >    5285.93 
 VCI[4] |  1  2  1  0  0  0 >    5316.66 
 VCI[4] |  0  2  0  0  1  0 >    5333.42 
 VCI[4] |  0  3  1  0  0  0 >    5397.86 
 VCI[4] |  1  0  1  0  0  1 >    5450.24 
 VCI[4] |  3  0  0  1  0  0 >    5470.54 
 VCI[4] |  2  0  2  0  0  0 >    5472.31 
 VCI[4] |  1  0  1  0  1  0 >    5488.43 
 VCI[4] |  0  1  1  0  0  1 >    5548.08 
 VCI[4] |  0  0  0  0  2  0 >    5558.89 
 VCI[4] |  2  1  0  1  0  0 >    5568.46 
 VCI[4] |  0  0  0  0  1  1 >    5570.33 
 VCI[4] |  0  1  1  0  1  0 >    5580.04 
 VCI[4] |  1  1  2  0  0  0 >    5580.84 
 VCI[4] |  0  0  0  3  0  0 >    5593.66 
 VCI[4] |  0  0  0  0  0  2 >    5599.87 
 VCI[4] |  1  2  0  1  0  0 >    5654.97 
 VCI[4] |  0  2  2  0  0  0 >    5680.07 
 VCI[4] |  0  3  0  1  0  0 >    5724.28 
 VCI[4] |  0  0  2  0  0  1 >    5793.35 
 VCI[4] |  0  0  2  0  1  0 >    5807.54 
 VCI[4] |  1  0  0  1  0  1 >    5822.83 
 VCI[4] |  1  0  3  0  0  0 >    5826.84 
 VCI[4] |  2  0  1  1  0  0 >    5837.07 
 VCI[4] |  1  0  0  1  1  0 >    5850.23 
 VCI[4] |  0  1  0  1  0  1 >    5911.07 
 VCI[4] |  0  1  0  1  1  0 >    5929.54 
 VCI[4] |  0  1  3  0  0  0 >    5939.39 
 VCI[4] |  1  1  1  1  0  0 >    5940.69 
 VCI[4] |  0  2  1  1  0  0 >    6030.54 
 VCI[4] |  0  0  1  1  0  1 >    6168.80 
 VCI[4] |  0  0  1  1  1  0 >    6171.75 
 VCI[4] |  0  0  4  0  0  0 >    6178.92 
 VCI[4] |  1  0  2  1  0  0 >    6203.05 
 VCI[4] |  2  0  0  2  0  0 >    6251.75 
 VCI[4] |  3  0  0  0  1  0 >    6293.16 
 VCI[4] |  0  1  2  1  0  0 >    6311.31 
 VCI[4] |  3  0  0  0  0  1 >    6338.82 
 VCI[4] |  1  1  0  2  0  0 >    6348.74 
 VCI[4] |  2  1  0  0  1  0 >    6421.11 
 VCI[4] |  0  2  0  2  0  0 >    6423.57 
 VCI[4] |  2  1  0  0  0  1 >    6455.86 
 VCI[4] |  1  2  0  0  1  0 >    6531.30 
 VCI[4] |  0  0  0  2  0  1 >    6550.70 
 VCI[4] |  0  0  0  2  1  0 >    6552.81 
 VCI[4] |  1  2  0  0  0  1 >    6563.24 
 VCI[4] |  0  0  3  1  0  0 >    6567.49 
 VCI[4] |  0  3  0  0  1  0 >    6603.80 
 VCI[4] |  1  0  1  2  0  0 >    6633.69 
 VCI[4] |  0  3  0  0  0  1 >    6656.25 
 VCI[4] |  2  0  1  0  1  0 >    6697.84 
 VCI[4] |  2  0  1  0  0  1 >    6720.95 
 VCI[4] |  1  0  0  0  0  2 >    6730.60 
 VCI[4] |  0  1  1  2  0  0 >    6733.53 
 VCI[4] |  1  0  0  0  1  1 >    6755.98 
 VCI[4] |  1  0  0  0  2  0 >    6769.07 
 VCI[4] |  1  1  1  0  1  0 >    6829.85 
 VCI[4] |  0  1  0  0  0  2 >    6833.16 
 VCI[4] |  1  1  1  0  0  1 >    6847.24 
 VCI[4] |  0  1  0  0  1  1 >    6856.65 
 VCI[4] |  0  1  0  0  2  0 >    6859.35 
 VCI[4] |  0  2  1  0  1  0 >    6927.89 
 VCI[4] |  0  2  1  0  0  1 >    6962.21 
 VCI[4] |  0  0  2  2  0  0 >    7011.70 
 VCI[4] |  2  0  0  1  1  0 >    7087.18 
 VCI[4] |  0  0  1  0  0  2 >    7091.22 
 VCI[4] |  0  0  1  0  2  0 >    7097.18 
 VCI[4] |  0  0  1  0  1  1 >    7103.00 
 VCI[4] |  1  0  2  0  1  0 >    7105.26 
 VCI[4] |  1  0  2  0  0  1 >    7105.31 
 VCI[4] |  2  0  0  1  0  1 >    7113.98 
 VCI[4] |  1  0  0  3  0  0 >    7134.64 
 VCI[4] |  1  1  0  1  1  0 >    7211.66 
 VCI[4] |  0  1  0  3  0  0 >    7225.45 
 VCI[4] |  1  1  0  1  0  1 >    7229.40 
 VCI[4] |  0  1  2  0  1  0 >    7231.07 
 VCI[4] |  0  1  2  0  0  1 >    7239.71 
 VCI[4] |  0  2  0  1  1  0 >    7300.47 
 VCI[4] |  0  2  0  1  0  1 >    7331.96 
 VCI[4] |  0  0  3  0  0  1 >    7490.37 
 VCI[4] |  0  0  0  1  2  0 >    7497.19 
 VCI[4] |  1  0  1  1  1  0 >    7503.45 
 VCI[4] |  0  0  3  0  1  0 >    7504.10 
 VCI[4] |  1  0  1  1  0  1 >    7508.43 
 VCI[4] |  0  0  0  1  0  2 >    7508.86 
 VCI[4] |  0  0  0  1  1  1 >    7512.30 
 VCI[4] |  0  0  1  3  0  0 >    7527.32 
 VCI[4] |  0  1  1  1  1  0 >    7623.17 
 VCI[4] |  0  1  1  1  0  1 >    7633.59 
 VCI[4] |  0  0  2  1  0  1 >    7904.25 
 VCI[4] |  0  0  2  1  1  0 >    7912.51 
 VCI[4] |  1  0  0  2  1  0 >    7948.02 
 VCI[4] |  1  0  0  2  0  1 >    7949.03 
 VCI[4] |  2  0  0  0  2  0 >    8021.93 
 VCI[4] |  0  1  0  2  1  0 >    8057.94 
 VCI[4] |  0  1  0  2  0  1 >    8061.49 
 VCI[4] |  0  0  0  4  0  0 >    8129.98 
 VCI[4] |  1  1  0  0  2  0 >    8173.92 
 VCI[4] |  2  0  0  0  0  2 >    8256.28 
 VCI[4] |  2  0  0  0  1  1 >    8263.09 
 VCI[4] |  0  2  0  0  0  2 >    8296.03 
 VCI[4] |  0  0  1  2  0  1 >    8357.42 
 VCI[4] |  0  0  1  2  1  0 >    8368.40 
 VCI[4] |  1  1  0  0  0  2 >    8449.71 
 VCI[4] |  1  1  0  0  1  1 >    8450.26 
 VCI[4] |  1  0  1  0  0  2 >    8465.07 
 VCI[4] |  0  0  0  0  0  3 >    8475.16 
 VCI[4] |  0  0  0  0  3  0 >    8486.31 
 VCI[4] |  0  2  0  0  1  1 >    8527.15 
 VCI[4] |  0  0  0  0  1  2 >    8543.90 
 VCI[4] |  0  1  1  0  0  2 >    8609.33 
 VCI[4] |  0  2  0  0  2  0 >    8654.44 
 VCI[4] |  0  2  0  0  1  1 >    8656.18 
 VCI[4] |  1  0  1  0  1  1 >    8753.07 
 VCI[4] |  1  0  1  0  2  0 >    8753.57 
 VCI[4] |  0  0  0  3  0  1 >    8866.12 
 VCI[4] |  0  0  0  3  1  0 >    8885.59 
 VCI[4] |  1  0  0  1  0  2 >    8891.36 
 VCI[4] |  0  0  2  0  0  2 >    8894.75 
 VCI[4] |  0  1  1  0  2  0 >    8904.90 
 VCI[4] |  0  1  1  0  1  1 >    8906.44 
 VCI[4] |  0  1  0  1  0  2 >    9024.63 
 VCI[4] |  1  0  0  1  2  0 >    9181.99 
 VCI[4] |  1  0  0  1  1  1 >    9182.45 
 VCI[4] |  0  0  2  0  1  1 >    9206.12 
 VCI[4] |  0  0  2  0  2  0 >    9209.64 
 VCI[4] |  0  1  0  1  2  0 >    9324.68 
 VCI[4] |  0  1  0  1  1  1 >    9326.51 
 VCI[4] |  0  0  1  1  0  2 >    9329.37 
 VCI[4] |  0  0  1  1  1  1 >    9643.99 
 VCI[4] |  0  0  1  1  2  0 >    9646.36 
 VCI[4] |  0  0  0  2  0  2 >    9797.42 
 VCI[4] |  1  0  0  0  0  3 >   10084.00 
 VCI[4] |  0  0  0  2  1  1 >   10116.56 
 VCI[4] |  0  0  0  2  2  0 >   10119.86 
 VCI[4] |  0  1  0  0  0  3 >   10241.12 
 VCI[4] |  1  0  0  0  3  0 >   10296.36 
 VCI[4] |  0  1  0  0  3  0 >   10467.28 
 VCI[4] |  0  0  1  0  0  3 >   10539.68 
 VCI[4] |  0  0  1  0  3  0 >   10814.68 
 VCI[4] |  1  0  0  0  2  1 >   10930.69 
 VCI[4] |  1  0  0  0  1  2 >   10945.18 
 VCI[4] |  0  0  0  1  0  3 >   11004.58 
 VCI[4] |  0  1  0  0  2  1 >   11110.86 
 VCI[4] |  0  1  0  0  1  2 >   11125.77 
 VCI[4] |  0  0  0  1  3  0 >   11277.86 
 VCI[4] |  0  0  1  0  2  1 >   11452.39 
 VCI[4] |  0  0  1  0  1  2 >   11468.33 
 VCI[4] |  0  0  0  1  2  1 >   11924.38 
 VCI[4] |  0  0  0  1  1  2 >   11940.81 
 VCI[4] |  0  0  0  0  0  4 >   12316.11 
 VCI[4] |  0  0  0  0  1  3 >   13003.59 
 VCI[4] |  0  0  0  0  4  0 >   13198.79 
 VCI[4] |  0  0  0  0  3  1 >   14340.28 
 VCI[4] |  0  0  0  0  2  2 >   14348.81 
 -----------------------------------------------------------
 VCI[4] construnction time:  CPU    0.62 s  wall    0.16 s
 -----------------------------------------------------------
 VCI time:                    CPU    0.75 s  wall    0.19 s
 ----------------------------------------------------------------
             Standard Nuclear Orientation (Angstroms)
    I     Atom           X                Y                Z
 ----------------------------------------------------------------
    1      C       0.0000000000     0.0000000000     0.5201447933
    2      O       0.0000000000     0.0000000000    -0.6700331089
    3      H       0.9366620905    -0.0000000000     1.1196984911
    4      H      -0.9366620905     0.0000000000     1.1196984911
 ----------------------------------------------------------------
 Nuclear Repulsion Energy =          31.52567024 hartrees
 There are        8 alpha and        8 beta electrons

 = Finishing finite difference calculation for ANHAR =
 =====================================================
 =====================================================
 Requested basis set is def2-TZVP
 There are 30 shells and 74 basis functions
 **********************************************************************
 **                                                                  **
 **                       VIBRATIONAL ANALYSIS                       **
 **                       --------------------                       **
 **                                                                  **
 **        VIBRATIONAL FREQUENCIES (CM**-1) AND NORMAL MODES         **
 **     FORCE CONSTANTS (mDYN/ANGSTROM) AND REDUCED MASSES (AMU)     **
 **                  INFRARED INTENSITIES (KM/MOL)                   **
 **                                                                  **
 **********************************************************************
 

 Mode:                 1                      2                      3
 Frequency:      1200.71                1260.30                1528.61
 Force Cnst:      1.1690                 1.2707                 1.5013
 Red. Mass:       1.3762                 1.3579                 1.0905
 IR Active:          YES                    YES                    YES
 IR Intens:        1.131                 15.536                  7.053
 Raman Active:       YES                    YES                    YES
               X      Y      Z        X      Y      Z        X      Y      Z
 C         -0.000 -0.176 -0.000   -0.152  0.000  0.000    0.000  0.000 -0.002
 O          0.000  0.044  0.000    0.081 -0.000 -0.000   -0.000 -0.000 -0.074
 H          0.000  0.695 -0.000    0.262 -0.000 -0.645   -0.366 -0.000  0.602
 H          0.000  0.695  0.000    0.262 -0.000  0.645    0.366 -0.000  0.602
 TransDip  -0.000  0.034 -0.000   -0.126 -0.000  0.000    0.000 -0.000  0.085

 Mode:                 4                      5                      6
 Frequency:      1875.94                2850.95                2904.91
 Force Cnst:     16.4981                 5.0179                 5.5508
 Red. Mass:       7.9569                 1.0478                 1.1164
 IR Active:          YES                    YES                    YES
 IR Intens:      128.064                 68.455                130.927
 Raman Active:       YES                    YES                    YES
               X      Y      Z        X      Y      Z        X      Y      Z
 C          0.000 -0.000  0.608   -0.000  0.000 -0.060   -0.099  0.000 -0.000
 O         -0.000  0.000 -0.438    0.000 -0.000 -0.001   -0.000 -0.000  0.000
 H          0.445  0.000 -0.145    0.604 -0.000  0.365    0.592  0.000  0.380
 H         -0.445  0.000 -0.145   -0.604 -0.000  0.365    0.592 -0.000 -0.380
 TransDip  -0.000  0.000  0.362   -0.000 -0.000 -0.265   -0.366 -0.000 -0.000

 ======================================================================
                     VIBRATIONAL ANHARMONIC ANALYSIS                   
                     -------------------------------                   
 WARNING! Low frequency modes less than  300 are treated as rotation
 No anharmonic shift applied, please see IGNORE_LOW_FREQ for more details.
 WARNING! THESE RESULTS ARE CALCULATED WTIHOUT Eta_ijk AND Eta_ijkl
                                                                       
 TOSH[ 1]  1184.67    VPT2[ 1]  1184.67
 TOSH[ 2]  1258.33    VPT2[ 2]  1258.33
 TOSH[ 3]  1517.30    VPT2[ 3]  1515.43
 TOSH[ 4]  1853.34    VPT2[ 4]  1852.41
 TOSH[ 5]  2761.20    VPT2[ 5]  2726.24
 TOSH[ 6]  2740.73    VPT2[ 6]  2740.73

 VCI[ 1]mode[ 1]=  1.00 quanta * 1212.86
 VCI[ 1]mode[ 2]=  1.00 quanta * 1295.29
 VCI[ 1]mode[ 3]=  1.00 quanta * 1564.49
 VCI[ 1]mode[ 4]=  1.00 quanta * 1947.41
 VCI[ 1]mode[ 5]=  0.99 quanta * 3016.64
 VCI[ 1]mode[ 6]=  1.00 quanta * 3021.78

 VCI[ 2]mode[ 1]=  0.99 quanta * 1186.50
 VCI[ 2]mode[ 2]=  0.99 quanta * 1259.44
 VCI[ 2]mode[ 3]=  0.99 quanta * 1516.79
 VCI[ 2]mode[ 4]=  0.98 quanta * 1860.90
 VCI[ 2]mode[ 5]=  0.92 quanta * 2785.66
 VCI[ 2]mode[ 6]=  0.97 quanta * 2801.47

 VCI[ 3]mode[ 1]=  0.99 quanta * 1204.55
 VCI[ 3]mode[ 2]=  0.99 quanta * 1277.48
 VCI[ 3]mode[ 3]=  0.99 quanta * 1534.42
 VCI[ 3]mode[ 4]=  0.98 quanta * 1876.79
 VCI[ 3]mode[ 5]=  0.92 quanta * 2792.29
 VCI[ 3]mode[ 6]=  0.92 quanta * 2808.26

 VCI[ 4]mode[ 1]=  0.99 quanta * 1182.10
 VCI[ 4]mode[ 2]=  0.99 quanta * 1256.78
 VCI[ 4]mode[ 3]=  0.99 quanta * 1514.40
 VCI[ 4]mode[ 4]=  0.98 quanta * 1855.24
 VCI[ 4]mode[ 5]=  0.91 quanta * 2758.58
 VCI[ 4]mode[ 6]=  0.96 quanta * 2772.97

 ======================================================================

 STANDARD THERMODYNAMIC QUANTITIES AT   298.15 K  AND     1.00 ATM

   This Molecule has  0 Imaginary Frequencies
   Zero point vibrational energy:       16.614 kcal/mol

   Atom    1 Element C  Has Mass   12.00000
   Atom    2 Element O  Has Mass   15.99491
   Atom    3 Element H  Has Mass    1.00783
   Atom    4 Element H  Has Mass    1.00783
   Molecular Mass:    30.010570 amu
   Principal axes and moments of inertia in amu*Bohr^2:
                             1           2           3
    Eigenvalues --        6.31511    45.67578    51.99089
          X               0.00000     1.00000     0.00000
          Y               0.00000     0.00000     1.00000
          Z               1.00000     0.00000     0.00000
   Rotational Symmetry Number is   2
   The Molecule is an Asymmetric Top
   Translational Enthalpy:        0.889 kcal/mol
   Rotational Enthalpy:           0.889 kcal/mol
   Vibrational Enthalpy:         16.636 kcal/mol
   gas constant (RT):             0.592 kcal/mol
   Translational Entropy:        36.130  cal/mol.K
   Rotational Entropy:           15.979  cal/mol.K
   Vibrational Entropy:           0.086  cal/mol.K

   Total Enthalpy:               19.006 kcal/mol
   Total Entropy:                52.196  cal/mol.K

 ======================================================================

 STANDARD THERMODYNAMIC QUANTITIES FOR ANHARMONIC VIBRATION -- TOSH

   Zero point vibrational energy:       16.176 kcal/mol

   Vibrational Enthalpy:         16.200 kcal/mol
   Vibrational Entropy:           0.090  cal/mol.K

   Total Enthalpy:               18.569 kcal/mol
   Total Entropy:                52.200  cal/mol.K

 ======================================================================

 STANDARD THERMODYNAMIC QUANTITIES FOR ANHARMONIC VIBRATION -- VPT2

   Zero point vibrational energy:       16.122 kcal/mol

   Vibrational Enthalpy:         16.146 kcal/mol
   Vibrational Entropy:           0.090  cal/mol.K

   Total Enthalpy:               18.515 kcal/mol
   Total Entropy:                52.200  cal/mol.K

 ======================================================================

 STANDARD THERMODYNAMIC QUANTITIES FOR ANHARMONIC VIBRATION -- VCI 4

   Zero point vibrational energy:       16.211 kcal/mol

   Vibrational Enthalpy:         16.235 kcal/mol
   Vibrational Entropy:           0.091  cal/mol.K

   Total Enthalpy:               18.605 kcal/mol
   Total Entropy:                52.200  cal/mol.K

 ======================================================================
 
Archival summary:
1\1\gadi-cpu-clx-0263.gadi.nci.org.au\FREQ\ProcedureUnspecified\BasisUnspecified\112\pk8622\TueJun2313:52:132020TueJun2313:52:132020\0\\#,FREQ,ProcedureUnspecified,BasisUnspecified,\\0,1\C\H,1,1.11212\H,1,1.11212,2,114.754\O,1,1.19018,2,122.623,3,-180,0\\\@

 Total job time:  468.76s(wall), 1807.79s(cpu) 
 Tue Jun 23 13:52:13 2020

        *************************************************************
        *                                                           *
        *  Thank you very much for using Q-Chem.  Have a nice day.  *
        *                                                           *
        *************************************************************


