                  Welcome to Q-Chem
     A Quantum Leap Into The Future Of Chemistry


 Q-Chem 5.2 (devel), Q-Chem, Inc., Pleasanton, CA (2019)

 Yihan Shao,  Zhengting Gan,  E. Epifanovsky,  A. T. B. Gilbert,  M. Wormit,  
 J. Kussmann,  A. W. Lange,  A. Behn,  Jia Deng,  Xintian Feng,  D. Ghosh,  
 M. Goldey,  P. R. Horn,  L. D. Jacobson,  I. Kaliman,  T. Kus,  A. Landau,  
 Jie Liu,  E. I. Proynov,  R. M. Richard,  R. P. Steele,  E. J. Sundstrom,  
 H. L. Woodcock III,  P. M. Zimmerman,  D. Zuev,  B. Albrecht,  E. Alguire,  
 S. A. Baeppler,  D. Barton,  Z. Benda,  Y. A. Bernard,  E. J. Berquist,  
 K. B. Bravaya,  H. Burton,  D. Casanova,  Chun-Min Chang,  Yunqing Chen,  
 A. Chien,  K. D. Closser,  M. P. Coons,  S. Coriani,  S. Dasgupta,  
 A. L. Dempwolff,  M. Diedenhofen,  Hainam Do,  R. G. Edgar,  Po-Tung Fang,  
 S. Faraji,  S. Fatehi,  Qingguo Feng,  K. D. Fenk,  J. Fosso-Tande,  
 J. Gayvert,  Qinghui Ge,  A. Ghysels,  G. Gidofalvi,  J. Gomes,  
 J. Gonthier,  A. Gunina,  D. Hait,  M. W. D. Hanson-Heine,  
 P. H. P. Harbach,  A. W. Hauser,  M. F. Herbst,  J. E. Herr,  
 E. G. Hohenstein,  Z. C. Holden,  Kerwin Hui,  B. C. Huynh,  T.-C. Jagau,  
 Hyunjun Ji,  B. Kaduk,  K. Khistyaev,  Jaehoon Kim,  P. Klunzinger,  K. Koh,  
 D. Kosenkov,  L. Koulias,  T. Kowalczyk,  C. M. Krauter,  A. Kunitsa,  
 Ka Un Lao,  A. Laurent,  K. V. Lawler,  Joonho Lee,  D. Lefrancois,  
 S. Lehtola,  D. S. Levine,  Yi-Pei Li,  You-Sheng Lin,  Fenglai Liu,  
 E. Livshits,  A. Luenser,  P. Manohar,  E. Mansoor,  S. F. Manzer,  
 Shan-Ping Mao,  Yuezhi Mao,  N. Mardirossian,  A. V. Marenich,  
 T. Markovich,  L. A. Martinez-Martinez,  S. A. Maurer,  N. J. Mayhall,  
 S. C. McKenzie,  J.-M. Mewes,  P. Morgante,  A. F. Morrison,  
 J. W. Mullinax,  K. Nanda,  T. S. Nguyen-Beck,  R. Olivares-Amaya,  
 J. A. Parkhill,  Zheng Pei,  T. M. Perrine,  F. Plasser,  P. Pokhilko,  
 S. Prager,  A. Prociuk,  E. Ramos,  D. R. Rehn,  F. Rob,  M. Scheurer,  
 M. Schneider,  N. Sergueev,  S. M. Sharada,  S. Sharma,  D. W. Small,  
 T. Stauch,  T. Stein,  Yu-Chuan Su,  A. J. W. Thom,  A. Tkatchenko,  
 T. Tsuchimochi,  N. M. Tubman,  L. Vogt,  M. L. Vidal,  O. Vydrov,  
 M. A. Watson,  J. Wenzel,  M. de Wergifosse,  T. A. Wesolowski,  A. White,  
 J. Witte,  A. Yamada,  Jun Yang,  K. Yao,  S. Yeganeh,  S. R. Yost,  
 Zhi-Qiang You,  A. Zech,  Igor Ying Zhang,  Xing Zhang,  Yan Zhao,  
 Ying Zhu,  B. R. Brooks,  G. K. L. Chan,  C. J. Cramer,  M. S. Gordon,  
 W. J. Hehre,  A. Klamt,  M. W. Schmidt,  C. D. Sherrill,  D. G. Truhlar,  
 A. Aspuru-Guzik,  R. Baer,  A. T. Bell,  N. A. Besley,  Jeng-Da Chai,  
 A. E. DePrince, III,  R. A. DiStasio Jr.,  A. Dreuw,  B. D. Dunietz,  
 T. R. Furlani,  Chao-Ping Hsu,  Yousung Jung,  Jing Kong,  D. S. Lambrecht,  
 WanZhen Liang,  C. Ochsenfeld,  V. A. Rassolov,  L. V. Slipchenko,  
 J. E. Subotnik,  T. Van Voorhis,  J. M. Herbert,  A. I. Krylov,  
 P. M. W. Gill,  M. Head-Gordon

 Contributors to earlier versions of Q-Chem not listed above: 
 R. D. Adamson,  B. Austin,  J. Baker,  G. J. O. Beran,  K. Brandhorst,  
 S. T. Brown,  E. F. C. Byrd,  A. K. Chakraborty,  C.-L. Cheng,  
 Siu Hung Chien,  D. M. Chipman,  D. L. Crittenden,  H. Dachsel,  
 R. J. Doerksen,  A. D. Dutoi,  L. Fusti-Molnar,  W. A. Goddard III,  
 A. Golubeva-Zadorozhnaya,  S. R. Gwaltney,  G. Hawkins,  A. Heyden,  
 S. Hirata,  G. Kedziora,  F. J. Keil,  C. Kelley,  Jihan Kim,  R. A. King,  
 R. Z. Khaliullin,  P. P. Korambath,  W. Kurlancheek,  A. M. Lee,  M. S. Lee,  
 S. V. Levchenko,  Ching Yeh Lin,  D. Liotard,  R. C. Lochan,  I. Lotan,  
 P. E. Maslen,  N. Nair,  D. P. O'Neill,  D. Neuhauser,  E. Neuscamman,  
 C. M. Oana,  R. Olson,  B. Peters,  R. Peverati,  P. A. Pieniazek,  
 Y. M. Rhee,  J. Ritchie,  M. A. Rohrdanz,  E. Rosta,  N. J. Russ,  
 H. F. Schaefer III,  N. E. Schultz,  N. Shenvi,  A. C. Simmonett,  A. Sodt,  
 D. Stuck,  K. S. Thanthiriwatte,  V. Vanovschi,  Tao Wang,  A. Warshel,  
 C. F. Williams,  Q. Wu,  X. Xu,  W. Zhang

 Please cite Q-Chem as follows:
 Y. Shao et al., Mol. Phys. 113, 184-215 (2015)
 DOI: 10.1080/00268976.2014.952696

 Q-Chem 5.2.0 for Intel X86 EM64T Linux

 Parts of Q-Chem use Armadillo 8.300.2 (Tropical Shenanigans).
 http://arma.sourceforge.net/

 Q-Chem begins on Tue Jun 23 13:52:13 2020  

Host: gadi-cpu-clx-0263.gadi.nci.org.au
0

     Scratch files written to /jobfs/7626483.gadi-pbs/qchem65701//
NAlpha2: 18
NElect   18
Mult     1

Checking the input file for inconsistencies... 	...done.

--------------------------------------------------------------
User input:
--------------------------------------------------------------
$comment
	QCHEM - Phosphine
	Geometry optimization
	Anharmonic frequency analysis
$end

$molecule
0 1
P         -0.06619        1.22605       -0.15895
H          1.31493        1.03098        0.07917
H         -0.38145        1.45450        1.20144
H         -0.38145       -0.15269       -0.11518

$end

$rem
	JOBTYPE	OPT
	METHOD	M06
	BASIS	def2-TZVP
	SCF_CONVERGENCE	7
$end

--------------------------------------------------------------
 ----------------------------------------------------------------
             Standard Nuclear Orientation (Angstroms)
    I     Atom           X                Y                Z
 ----------------------------------------------------------------
    1      P      -0.0000007555     0.0000011331     0.1250984487
    2      H       1.0990277235    -0.4806304053    -0.6254850711
    3      H      -0.9657423813    -0.7114737760    -0.6254918444
    4      H      -0.1332740093     1.1920871844    -0.6254998154
 ----------------------------------------------------------------
 Molecular Point Group                 C1    NOp =  1
 Largest Abelian Subgroup              C1    NOp =  1
 Nuclear Repulsion Energy =          17.59300918 hartrees
 There are        9 alpha and        9 beta electrons
 Requested basis set is def2-TZVP
 There are 25 shells and 55 basis functions

 Total QAlloc Memory Limit   2000 MB
 Mega-Array Size       188 MB
 MEM_STATIC part       192 MB
 A cutoff of  1.0D-10 yielded    325 shell pairs
 There are      1605 function pairs (      1929 Cartesian)
 Smallest overlap matrix eigenvalue = 1.36E-02

 Scale SEOQF with 1.000000e+00/1.000000e+00/1.000000e+00

 Standard Electronic Orientation quadrupole field applied
 Nucleus-field energy     =     0.0000000008 hartrees
 Guess from superposition of atomic densities
 Warning:  Energy on first SCF cycle will be non-variational
 SAD guess density has 18.000000 electrons

 -----------------------------------------------------------------------
  General SCF calculation program by
  Eric Jon Sundstrom, Paul Horn, Yuezhi Mao, Dmitri Zuev, Alec White,
  David Stuck, Shaama M.S., Shane Yost, Joonho Lee, David Small,
  Daniel Levine, Susi Lehtola, Hugh Burton, Evgeny Epifanovsky
 -----------------------------------------------------------------------
 Exchange:     0.2700 Hartree-Fock + 1.0000 M06
 Correlation:  1.0000 M06
 Using SG-3 standard quadrature grid
 using 4 threads for integral computing
 -------------------------------------------------------
 OpenMP Integral computing Module                
 Release: version 2.0, May 2017, Q-Chem Inc. Pleasanton 
 -------------------------------------------------------
 A restricted SCF calculation will be
 performed using DIIS
 SCF converges when DIIS error is below 1.0e-07
 ---------------------------------------
  Cycle       Energy         DIIS error
 ---------------------------------------
    1    -343.0584540459      5.50e-02  
    2    -343.1186594248      2.65e-03  
    3    -343.1215285974      2.14e-03  
    4    -343.1232485911      2.80e-04  
    5    -343.1232665648      5.55e-05  
    6    -343.1232679114      1.92e-05  
    7    -343.1232681093      1.69e-06  
    8    -343.1232681112      1.64e-07  
    9    -343.1232681114      2.61e-08  Convergence criterion met
 ---------------------------------------
 SCF time:   CPU 6.29s  wall 2.00s 
 SCF   energy in the final basis set =     -343.1232681114
 Total energy in the final basis set =     -343.1232681114
 
 --------------------------------------------------------------
 
                    Orbital Energies (a.u.)
 --------------------------------------------------------------
 
 Alpha MOs
 -- Occupied --
-77.2189  -6.6492  -4.7685  -4.7685  -4.7643  -0.6576  -0.3955  -0.3955
 -0.2833
 -- Virtual --
  0.0298   0.0298   0.0444   0.1856   0.1856   0.2297   0.2568   0.2569
  0.2615   0.3365   0.3366   0.4068   0.5315   0.5853   0.5853   1.1427
  1.1624   1.1625   1.1965   1.1965   1.2055   1.2080   1.2081   1.3245
  1.3821   1.3917   1.3918   1.5275   1.6096   1.6096   1.8343   1.8346
  1.9110   1.9866   2.1529   2.1533   2.3739   2.5672   2.5707   2.7083
  2.7521   2.7550   7.3386   7.3578   7.3578  14.2034
 --------------------------------------------------------------
 
          Ground-State Mulliken Net Atomic Charges

     Atom                 Charge (a.u.)
  ----------------------------------------
      1 P                    -0.131111
      2 H                     0.043682
      3 H                     0.043263
      4 H                     0.044166
  ----------------------------------------
  Sum of atomic charges =     0.000000

 -----------------------------------------------------------------
                    Cartesian Multipole Moments
 -----------------------------------------------------------------
    Charge (ESU x 10^10)
                -0.0000
    Dipole Moment (Debye)
         X      -0.0002      Y      -0.0003      Z      -0.5712
       Tot       0.5712
    Quadrupole Moments (Debye-Ang)
        XX     -14.6332     XY      -0.0002     YY     -14.6328
        XZ       0.0000     YZ       0.0000     ZZ     -16.9070
    Octopole Moments (Debye-Ang^2)
       XXX      -0.0065    XXY       0.0151    XYY       0.0053
       YYY      -0.0190    XXZ      -0.1974    XYZ       0.0005
       YYZ      -0.1986    XZZ       0.0000    YZZ       0.0002
       ZZZ      -1.0433
    Hexadecapole Moments (Debye-Ang^3)
      XXXX     -30.6644   XXXY       0.0005   XXYY     -10.2208
      XYYY       0.0005   YYYY     -30.6674   XXXZ      -0.1709
      XXYZ       0.4950   XYYZ       0.1718   YYYZ      -0.4931
      XXZZ     -10.6136   XYZZ      -0.0003   YYZZ     -10.6132
      XZZZ       0.0005   YZZZ       0.0005   ZZZZ     -34.9212
 -----------------------------------------------------------------
 Calculating analytic gradient of the SCF energy
 Gradient of SCF Energy
            1           2           3           4
    1   0.0000212   0.0001096  -0.0001337   0.0000028
    2   0.0000193  -0.0000607  -0.0000673   0.0001087
    3  -0.0052293   0.0017319   0.0016869   0.0018105
 Max gradient component =       5.229E-03
 RMS gradient           =       1.744E-03
 Gradient time:  CPU 2.22 s  wall 0.57 s
 Geometry Optimization Parameters
   NAtoms,    NIC,     NZ,  NCons,   NDum,   NFix, NCnnct, MaxDiis
        4      17       0       0       0       0       0       0


** GEOMETRY OPTIMIZATION IN DELOCALIZED INTERNAL COORDINATES **
   Searching for a Minimum

   Optimization Cycle:   1

                       Coordinates (Angstroms)
     ATOM                X               Y               Z
      1  P        -0.0000007555    0.0000011331    0.1250984487
      2  H         1.0990277235   -0.4806304053   -0.6254850711
      3  H        -0.9657423813   -0.7114737760   -0.6254918444
      4  H        -0.1332740093    1.1920871844   -0.6254998154
   Point Group: c1    Number of degrees of freedom:     6


   Energy is   -343.123268111


 Attempting to generate delocalized internal coordinates
 Initial Hessian constructed with Jon Baker's OPTIMIZE code

  6 Hessian modes will be used to form the next step
  Hessian Eigenvalues:
     0.160000    0.160000    0.160000    0.212269    0.212270    0.212272

 Minimum search - taking simple RFO step
 Searching for Lamda that Minimizes Along All modes
 Value Taken    Lamda =  -0.00018419
 Step Taken.  Stepsize is  0.033676

                             Maximum     Tolerance    Cnvgd?
         Gradient           0.004106      0.000300      NO
         Displacement       0.026603      0.001200      NO
         Energy change     *********      0.000001      NO


 New Cartesian Coordinates Obtained by Inverse Iteration

 Displacement from previous Coordinates is:  0.041261
 ----------------------------------------------------------------
             Standard Nuclear Orientation (Angstroms)
    I     Atom           X                Y                Z
 ----------------------------------------------------------------
    1      P      -0.0000399468    -0.0000421338     0.1384662067
    2      H       1.0908391175    -0.4770528463    -0.6299487428
    3      H      -0.9585268503    -0.7061953481    -0.6299238835
    4      H      -0.1322617431     1.1832744645    -0.6299718627
 ----------------------------------------------------------------
 Molecular Point Group                 C1    NOp =  1
 Largest Abelian Subgroup              C1    NOp =  1
 Nuclear Repulsion Energy =          17.57455601 hartrees
 There are        9 alpha and        9 beta electrons
 Applying Cartesian multipole field
    Component          Value
    ---------          -----
     (2,0,0)        1.00000E-10
     (0,2,0)        2.00000E-10
     (0,0,2)       -3.00000E-10
 Nucleus-field energy     =     0.0000000007 hartrees
 Requested basis set is def2-TZVP
 There are 25 shells and 55 basis functions
 A cutoff of  1.0D-10 yielded    325 shell pairs
 There are      1605 function pairs (      1929 Cartesian)
 Smallest overlap matrix eigenvalue = 1.34E-02
 Guess MOs from SCF MO coefficient file

 -----------------------------------------------------------------------
  General SCF calculation program by
  Eric Jon Sundstrom, Paul Horn, Yuezhi Mao, Dmitri Zuev, Alec White,
  David Stuck, Shaama M.S., Shane Yost, Joonho Lee, David Small,
  Daniel Levine, Susi Lehtola, Hugh Burton, Evgeny Epifanovsky
 -----------------------------------------------------------------------
 Exchange:     0.2700 Hartree-Fock + 1.0000 M06
 Correlation:  1.0000 M06
 Using SG-3 standard quadrature grid
 using 4 threads for integral computing
 -------------------------------------------------------
 OpenMP Integral computing Module                
 Release: version 2.0, May 2017, Q-Chem Inc. Pleasanton 
 -------------------------------------------------------
 A restricted SCF calculation will be
 performed using DIIS
 SCF converges when DIIS error is below 1.0e-07
 ---------------------------------------
  Cycle       Energy         DIIS error
 ---------------------------------------
    1    -343.1233343842      2.86e-04  
    2    -343.1233700572      2.34e-05  
    3    -343.1233704022      6.82e-06  
    4    -343.1233704181      3.96e-06  
    5    -343.1233704249      6.44e-07  
    6    -343.1233704247      5.57e-08  Convergence criterion met
 ---------------------------------------
 SCF time:   CPU 4.18s  wall 2.00s 
 SCF   energy in the final basis set =     -343.1233704247
 Total energy in the final basis set =     -343.1233704247
 
 --------------------------------------------------------------
 
                    Orbital Energies (a.u.)
 --------------------------------------------------------------
 
 Alpha MOs
 -- Occupied --
-77.2192  -6.6494  -4.7686  -4.7686  -4.7644  -0.6575  -0.3933  -0.3933
 -0.2861
 -- Virtual --
  0.0288   0.0288   0.0449   0.1863   0.1864   0.2299   0.2572   0.2572
  0.2629   0.3359   0.3360   0.4080   0.5338   0.5820   0.5820   1.1475
  1.1644   1.1645   1.1966   1.1966   1.2056   1.2069   1.2069   1.3267
  1.3769   1.3931   1.3931   1.5294   1.6098   1.6099   1.8258   1.8262
  1.8998   2.0022   2.1646   2.1650   2.3646   2.5684   2.5716   2.7185
  2.7508   2.7536   7.3405   7.3558   7.3559  14.1929
 --------------------------------------------------------------
 
          Ground-State Mulliken Net Atomic Charges

     Atom                 Charge (a.u.)
  ----------------------------------------
      1 P                    -0.132467
      2 H                     0.044141
      3 H                     0.043755
      4 H                     0.044571
  ----------------------------------------
  Sum of atomic charges =     0.000000

 -----------------------------------------------------------------
                    Cartesian Multipole Moments
 -----------------------------------------------------------------
    Charge (ESU x 10^10)
                -0.0000
    Dipole Moment (Debye)
         X      -0.0002      Y      -0.0004      Z      -0.5478
       Tot       0.5478
    Quadrupole Moments (Debye-Ang)
        XX     -14.6775     XY      -0.0001     YY     -14.6771
        XZ      -0.0000     YZ       0.0000     ZZ     -16.8385
    Octopole Moments (Debye-Ang^2)
       XXX      -0.0134    XXY       0.0392    XYY       0.0140
       YYY      -0.0415    XXZ      -0.3263    XYZ       0.0005
       YYZ      -0.3275    XZZ       0.0006    YZZ       0.0005
       ZZZ      -1.5334
    Hexadecapole Moments (Debye-Ang^3)
      XXXX     -30.6778   XXXY       0.0007   XXYY     -10.2258
      XYYY       0.0008   YYYY     -30.6825   XXXZ      -0.1699
      XXYZ       0.4933   XYYZ       0.1713   YYYZ      -0.4909
      XXZZ     -10.6097   XYZZ      -0.0002   YYZZ     -10.6096
      XZZZ       0.0010   YZZZ       0.0012   ZZZZ     -35.0979
 -----------------------------------------------------------------
 Calculating analytic gradient of the SCF energy
 Gradient of SCF Energy
            1           2           3           4
    1   0.0000263  -0.0002059   0.0001431   0.0000365
    2  -0.0000330   0.0000765   0.0001378  -0.0001814
    3  -0.0009355   0.0002970   0.0002830   0.0003554
 Max gradient component =       9.355E-04
 RMS gradient           =       3.283E-04
 Gradient time:  CPU 2.24 s  wall 0.58 s
 Geometry Optimization Parameters
   NAtoms,    NIC,     NZ,  NCons,   NDum,   NFix, NCnnct, MaxDiis
        4      17       0       0       0       0       0       0

 Cartesian Hessian Update
 Hessian updated using BFGS update


** GEOMETRY OPTIMIZATION IN DELOCALIZED INTERNAL COORDINATES **
   Searching for a Minimum

   Optimization Cycle:   2

                       Coordinates (Angstroms)
     ATOM                X               Y               Z
      1  P        -0.0000399468   -0.0000421338    0.1384662067
      2  H         1.0908391175   -0.4770528463   -0.6299487428
      3  H        -0.9585268503   -0.7061953481   -0.6299238835
      4  H        -0.1322617431    1.1832744645   -0.6299718627
   Point Group: c1    Number of degrees of freedom:     6


   Energy is   -343.123370425

 Hessian updated using BFGS update

  5 Hessian modes will be used to form the next step
  Hessian Eigenvalues:
     0.143441    0.160001    0.209904    0.212270    0.212289

 Minimum search - taking simple RFO step
 Searching for Lamda that Minimizes Along All modes
 Value Taken    Lamda =  -0.00000385
 Step Taken.  Stepsize is  0.004988

                             Maximum     Tolerance    Cnvgd?
         Gradient           0.000754      0.000300      NO
         Displacement       0.004539      0.001200      NO
         Energy change     -0.000102      0.000001      NO


 New Cartesian Coordinates Obtained by Inverse Iteration

 Displacement from previous Coordinates is:  0.004286
 ----------------------------------------------------------------
             Standard Nuclear Orientation (Angstroms)
    I     Atom           X                Y                Z
 ----------------------------------------------------------------
    1      P      -0.0000724243    -0.0000329886     0.1403124638
    2      H       1.0904515736    -0.4768727882    -0.6305785093
    3      H      -0.9581656835    -0.7059267039    -0.6305304730
    4      H      -0.1322028884     1.1828166171    -0.6305817636
 ----------------------------------------------------------------
 Molecular Point Group                 C1    NOp =  1
 Largest Abelian Subgroup              C1    NOp =  1
 Nuclear Repulsion Energy =          17.56344656 hartrees
 There are        9 alpha and        9 beta electrons
 Applying Cartesian multipole field
    Component          Value
    ---------          -----
     (2,0,0)        1.00000E-10
     (0,2,0)        2.00000E-10
     (0,0,2)       -3.00000E-10
 Nucleus-field energy     =     0.0000000007 hartrees
 Requested basis set is def2-TZVP
 There are 25 shells and 55 basis functions
 A cutoff of  1.0D-10 yielded    325 shell pairs
 There are      1605 function pairs (      1929 Cartesian)
 Smallest overlap matrix eigenvalue = 1.34E-02
 Guess MOs from SCF MO coefficient file

 -----------------------------------------------------------------------
  General SCF calculation program by
  Eric Jon Sundstrom, Paul Horn, Yuezhi Mao, Dmitri Zuev, Alec White,
  David Stuck, Shaama M.S., Shane Yost, Joonho Lee, David Small,
  Daniel Levine, Susi Lehtola, Hugh Burton, Evgeny Epifanovsky
 -----------------------------------------------------------------------
 Exchange:     0.2700 Hartree-Fock + 1.0000 M06
 Correlation:  1.0000 M06
 Using SG-3 standard quadrature grid
 using 4 threads for integral computing
 -------------------------------------------------------
 OpenMP Integral computing Module                
 Release: version 2.0, May 2017, Q-Chem Inc. Pleasanton 
 -------------------------------------------------------
 A restricted SCF calculation will be
 performed using DIIS
 SCF converges when DIIS error is below 1.0e-07
 ---------------------------------------
  Cycle       Energy         DIIS error
 ---------------------------------------
    1    -343.1233714965      4.30e-05  
    2    -343.1233723126      6.09e-06  
    3    -343.1233723277      3.56e-06  
    4    -343.1233723324      6.93e-07  
    5    -343.1233723325      1.64e-07  
    6    -343.1233723328      4.70e-08  Convergence criterion met
 ---------------------------------------
 SCF time:   CPU 4.20s  wall 1.00s 
 SCF   energy in the final basis set =     -343.1233723328
 Total energy in the final basis set =     -343.1233723328
 
 --------------------------------------------------------------
 
                    Orbital Energies (a.u.)
 --------------------------------------------------------------
 
 Alpha MOs
 -- Occupied --
-77.2194  -6.6495  -4.7688  -4.7688  -4.7646  -0.6574  -0.3930  -0.3929
 -0.2864
 -- Virtual --
  0.0286   0.0286   0.0448   0.1864   0.1865   0.2300   0.2573   0.2573
  0.2630   0.3358   0.3358   0.4078   0.5341   0.5815   0.5815   1.1479
  1.1645   1.1646   1.1967   1.1967   1.2056   1.2066   1.2067   1.3269
  1.3762   1.3932   1.3932   1.5296   1.6098   1.6099   1.8246   1.8249
  1.8981   2.0036   2.1653   2.1657   2.3628   2.5679   2.5709   2.7194
  2.7503   2.7531   7.3404   7.3553   7.3553  14.1881
 --------------------------------------------------------------
 
          Ground-State Mulliken Net Atomic Charges

     Atom                 Charge (a.u.)
  ----------------------------------------
      1 P                    -0.132637
      2 H                     0.044195
      3 H                     0.043819
      4 H                     0.044624
  ----------------------------------------
  Sum of atomic charges =     0.000000

 -----------------------------------------------------------------
                    Cartesian Multipole Moments
 -----------------------------------------------------------------
    Charge (ESU x 10^10)
                -0.0000
    Dipole Moment (Debye)
         X      -0.0003      Y      -0.0004      Z      -0.5440
       Tot       0.5440
    Quadrupole Moments (Debye-Ang)
        XX     -14.6847     XY      -0.0000     YY     -14.6844
        XZ      -0.0000     YZ      -0.0000     ZZ     -16.8316
    Octopole Moments (Debye-Ang^2)
       XXX      -0.0132    XXY       0.0409    XYY       0.0149
       YYY      -0.0435    XXZ      -0.3435    XYZ       0.0005
       YYZ      -0.3446    XZZ       0.0009    YZZ       0.0004
       ZZZ      -1.5960
    Hexadecapole Moments (Debye-Ang^3)
      XXXX     -30.7015   XXXY       0.0007   XXYY     -10.2336
      XYYY       0.0011   YYYY     -30.7054   XXXZ      -0.1699
      XXYZ       0.4942   XYYZ       0.1718   YYYZ      -0.4920
      XXZZ     -10.6147   XYZZ      -0.0001   YYZZ     -10.6145
      XZZZ       0.0015   YZZZ       0.0010   ZZZZ     -35.1341
 -----------------------------------------------------------------
 Calculating analytic gradient of the SCF energy
 Gradient of SCF Energy
            1           2           3           4
    1   0.0000024   0.0000041  -0.0000219   0.0000154
    2  -0.0000225  -0.0000143   0.0000153   0.0000214
    3   0.0000138  -0.0000313  -0.0000262   0.0000437
 Max gradient component =       4.367E-05
 RMS gradient           =       2.219E-05
 Gradient time:  CPU 2.20 s  wall 0.57 s
 Geometry Optimization Parameters
   NAtoms,    NIC,     NZ,  NCons,   NDum,   NFix, NCnnct, MaxDiis
        4      17       0       0       0       0       0       0

 Cartesian Hessian Update
 Hessian updated using BFGS update


** GEOMETRY OPTIMIZATION IN DELOCALIZED INTERNAL COORDINATES **
   Searching for a Minimum

   Optimization Cycle:   3

                       Coordinates (Angstroms)
     ATOM                X               Y               Z
      1  P        -0.0000724243   -0.0000329886    0.1403124638
      2  H         1.0904515736   -0.4768727882   -0.6305785093
      3  H        -0.9581656835   -0.7059267039   -0.6305304730
      4  H        -0.1322028884    1.1828166171   -0.6305817636
   Point Group: c1    Number of degrees of freedom:     6


   Energy is   -343.123372333

 Hessian updated using BFGS update

  6 Hessian modes will be used to form the next step
  Hessian Eigenvalues:
     0.141084    0.160000    0.160001    0.212249    0.212270    0.215265

 Minimum search - taking simple RFO step
 Searching for Lamda that Minimizes Along All modes
 Value Taken    Lamda =   0.00000000
 Step Taken.  Stepsize is  0.000118

                             Maximum     Tolerance    Cnvgd?
         Gradient           0.000019      0.000300     YES
         Displacement       0.000098      0.001200     YES
         Energy change     -0.000002      0.000001      NO


                       Distance Matrix (Angstroms)
             P (  1)   H (  2)   H (  3)
   H (  2)  1.418059
   H (  3)  1.417895  2.061383
   H (  4)  1.418051  2.061420  2.061448
 
 Final energy is   -343.123372332832     


 ******************************
 **  OPTIMIZATION CONVERGED  **
 ******************************

                       Coordinates (Angstroms)
     ATOM                X               Y               Z
      1  P        -0.0000724243   -0.0000329886    0.1403124638
      2  H         1.0904515736   -0.4768727882   -0.6305785093
      3  H        -0.9581656835   -0.7059267039   -0.6305304730
      4  H        -0.1322028884    1.1828166171   -0.6305817636

Z-matrix Print:
$molecule
0 1
P 
H  1 1.417895
H  1 1.418051 2 93.254143
H  1 1.418059 2 93.249992 3 -93.441319 0
$end

 
 --------------------------------------------------------------
 
                    Orbital Energies (a.u.)
 --------------------------------------------------------------
 
 Alpha MOs
 -- Occupied --
-77.2194  -6.6495  -4.7688  -4.7688  -4.7646  -0.6574  -0.3930  -0.3929
 -0.2864
 -- Virtual --
  0.0286   0.0286   0.0448   0.1864   0.1865   0.2300   0.2573   0.2573
  0.2630   0.3358   0.3358   0.4078   0.5341   0.5815   0.5815   1.1479
  1.1645   1.1646   1.1967   1.1967   1.2056   1.2066   1.2067   1.3269
  1.3762   1.3932   1.3932   1.5296   1.6098   1.6099   1.8246   1.8249
  1.8981   2.0036   2.1653   2.1657   2.3628   2.5679   2.5709   2.7194
  2.7503   2.7531   7.3404   7.3553   7.3553  14.1881
 --------------------------------------------------------------
 
          Ground-State Mulliken Net Atomic Charges

     Atom                 Charge (a.u.)
  ----------------------------------------
      1 P                    -0.132637
      2 H                     0.044195
      3 H                     0.043819
      4 H                     0.044624
  ----------------------------------------
  Sum of atomic charges =     0.000000

 -----------------------------------------------------------------
                    Cartesian Multipole Moments
 -----------------------------------------------------------------
    Charge (ESU x 10^10)
                -0.0000
    Dipole Moment (Debye)
         X      -0.0003      Y      -0.0004      Z      -0.5440
       Tot       0.5440
    Quadrupole Moments (Debye-Ang)
        XX     -14.6847     XY      -0.0000     YY     -14.6844
        XZ      -0.0000     YZ      -0.0000     ZZ     -16.8316
    Octopole Moments (Debye-Ang^2)
       XXX      -0.0132    XXY       0.0409    XYY       0.0149
       YYY      -0.0435    XXZ      -0.3435    XYZ       0.0005
       YYZ      -0.3446    XZZ       0.0009    YZZ       0.0004
       ZZZ      -1.5960
    Hexadecapole Moments (Debye-Ang^3)
      XXXX     -30.7015   XXXY       0.0007   XXYY     -10.2336
      XYYY       0.0011   YYYY     -30.7054   XXXZ      -0.1699
      XXYZ       0.4942   XYYZ       0.1718   YYYZ      -0.4920
      XXZZ     -10.6147   XYZZ      -0.0001   YYZZ     -10.6145
      XZZZ       0.0015   YZZZ       0.0010   ZZZZ     -35.1341
 -----------------------------------------------------------------
Archival summary:
1\1\gadi-cpu-clx-0263.gadi.nci.org.au\OPT\ProcedureUnspecified\BasisUnspecified\13\pk8622\TueJun2313:52:192020TueJun2313:52:192020\0\\#,OPT,ProcedureUnspecified,BasisUnspecified,\\0,1\P\H,1,1.4179\H,1,1.41805,2,93.2541\H,1,1.41806,2,93.25,3,-93.4413,0\\\@

 Total job time:  5.79s(wall), 22.42s(cpu) 
 Tue Jun 23 13:52:19 2020

        *************************************************************
        *                                                           *
        *  Thank you very much for using Q-Chem.  Have a nice day.  *
        *                                                           *
        *************************************************************


 
User input: 2 of 2 
 
                  Welcome to Q-Chem
     A Quantum Leap Into The Future Of Chemistry


 Q-Chem 5.2 (devel), Q-Chem, Inc., Pleasanton, CA (2019)

 Yihan Shao,  Zhengting Gan,  E. Epifanovsky,  A. T. B. Gilbert,  M. Wormit,  
 J. Kussmann,  A. W. Lange,  A. Behn,  Jia Deng,  Xintian Feng,  D. Ghosh,  
 M. Goldey,  P. R. Horn,  L. D. Jacobson,  I. Kaliman,  T. Kus,  A. Landau,  
 Jie Liu,  E. I. Proynov,  R. M. Richard,  R. P. Steele,  E. J. Sundstrom,  
 H. L. Woodcock III,  P. M. Zimmerman,  D. Zuev,  B. Albrecht,  E. Alguire,  
 S. A. Baeppler,  D. Barton,  Z. Benda,  Y. A. Bernard,  E. J. Berquist,  
 K. B. Bravaya,  H. Burton,  D. Casanova,  Chun-Min Chang,  Yunqing Chen,  
 A. Chien,  K. D. Closser,  M. P. Coons,  S. Coriani,  S. Dasgupta,  
 A. L. Dempwolff,  M. Diedenhofen,  Hainam Do,  R. G. Edgar,  Po-Tung Fang,  
 S. Faraji,  S. Fatehi,  Qingguo Feng,  K. D. Fenk,  J. Fosso-Tande,  
 J. Gayvert,  Qinghui Ge,  A. Ghysels,  G. Gidofalvi,  J. Gomes,  
 J. Gonthier,  A. Gunina,  D. Hait,  M. W. D. Hanson-Heine,  
 P. H. P. Harbach,  A. W. Hauser,  M. F. Herbst,  J. E. Herr,  
 E. G. Hohenstein,  Z. C. Holden,  Kerwin Hui,  B. C. Huynh,  T.-C. Jagau,  
 Hyunjun Ji,  B. Kaduk,  K. Khistyaev,  Jaehoon Kim,  P. Klunzinger,  K. Koh,  
 D. Kosenkov,  L. Koulias,  T. Kowalczyk,  C. M. Krauter,  A. Kunitsa,  
 Ka Un Lao,  A. Laurent,  K. V. Lawler,  Joonho Lee,  D. Lefrancois,  
 S. Lehtola,  D. S. Levine,  Yi-Pei Li,  You-Sheng Lin,  Fenglai Liu,  
 E. Livshits,  A. Luenser,  P. Manohar,  E. Mansoor,  S. F. Manzer,  
 Shan-Ping Mao,  Yuezhi Mao,  N. Mardirossian,  A. V. Marenich,  
 T. Markovich,  L. A. Martinez-Martinez,  S. A. Maurer,  N. J. Mayhall,  
 S. C. McKenzie,  J.-M. Mewes,  P. Morgante,  A. F. Morrison,  
 J. W. Mullinax,  K. Nanda,  T. S. Nguyen-Beck,  R. Olivares-Amaya,  
 J. A. Parkhill,  Zheng Pei,  T. M. Perrine,  F. Plasser,  P. Pokhilko,  
 S. Prager,  A. Prociuk,  E. Ramos,  D. R. Rehn,  F. Rob,  M. Scheurer,  
 M. Schneider,  N. Sergueev,  S. M. Sharada,  S. Sharma,  D. W. Small,  
 T. Stauch,  T. Stein,  Yu-Chuan Su,  A. J. W. Thom,  A. Tkatchenko,  
 T. Tsuchimochi,  N. M. Tubman,  L. Vogt,  M. L. Vidal,  O. Vydrov,  
 M. A. Watson,  J. Wenzel,  M. de Wergifosse,  T. A. Wesolowski,  A. White,  
 J. Witte,  A. Yamada,  Jun Yang,  K. Yao,  S. Yeganeh,  S. R. Yost,  
 Zhi-Qiang You,  A. Zech,  Igor Ying Zhang,  Xing Zhang,  Yan Zhao,  
 Ying Zhu,  B. R. Brooks,  G. K. L. Chan,  C. J. Cramer,  M. S. Gordon,  
 W. J. Hehre,  A. Klamt,  M. W. Schmidt,  C. D. Sherrill,  D. G. Truhlar,  
 A. Aspuru-Guzik,  R. Baer,  A. T. Bell,  N. A. Besley,  Jeng-Da Chai,  
 A. E. DePrince, III,  R. A. DiStasio Jr.,  A. Dreuw,  B. D. Dunietz,  
 T. R. Furlani,  Chao-Ping Hsu,  Yousung Jung,  Jing Kong,  D. S. Lambrecht,  
 WanZhen Liang,  C. Ochsenfeld,  V. A. Rassolov,  L. V. Slipchenko,  
 J. E. Subotnik,  T. Van Voorhis,  J. M. Herbert,  A. I. Krylov,  
 P. M. W. Gill,  M. Head-Gordon

 Contributors to earlier versions of Q-Chem not listed above: 
 R. D. Adamson,  B. Austin,  J. Baker,  G. J. O. Beran,  K. Brandhorst,  
 S. T. Brown,  E. F. C. Byrd,  A. K. Chakraborty,  C.-L. Cheng,  
 Siu Hung Chien,  D. M. Chipman,  D. L. Crittenden,  H. Dachsel,  
 R. J. Doerksen,  A. D. Dutoi,  L. Fusti-Molnar,  W. A. Goddard III,  
 A. Golubeva-Zadorozhnaya,  S. R. Gwaltney,  G. Hawkins,  A. Heyden,  
 S. Hirata,  G. Kedziora,  F. J. Keil,  C. Kelley,  Jihan Kim,  R. A. King,  
 R. Z. Khaliullin,  P. P. Korambath,  W. Kurlancheek,  A. M. Lee,  M. S. Lee,  
 S. V. Levchenko,  Ching Yeh Lin,  D. Liotard,  R. C. Lochan,  I. Lotan,  
 P. E. Maslen,  N. Nair,  D. P. O'Neill,  D. Neuhauser,  E. Neuscamman,  
 C. M. Oana,  R. Olson,  B. Peters,  R. Peverati,  P. A. Pieniazek,  
 Y. M. Rhee,  J. Ritchie,  M. A. Rohrdanz,  E. Rosta,  N. J. Russ,  
 H. F. Schaefer III,  N. E. Schultz,  N. Shenvi,  A. C. Simmonett,  A. Sodt,  
 D. Stuck,  K. S. Thanthiriwatte,  V. Vanovschi,  Tao Wang,  A. Warshel,  
 C. F. Williams,  Q. Wu,  X. Xu,  W. Zhang

 Please cite Q-Chem as follows:
 Y. Shao et al., Mol. Phys. 113, 184-215 (2015)
 DOI: 10.1080/00268976.2014.952696

 Q-Chem 5.2.0 for Intel X86 EM64T Linux

 Parts of Q-Chem use Armadillo 8.300.2 (Tropical Shenanigans).
 http://arma.sourceforge.net/

 Q-Chem begins on Tue Jun 23 13:52:19 2020  

Host: gadi-cpu-clx-0263.gadi.nci.org.au
0

     Scratch files written to /jobfs/7626483.gadi-pbs/qchem65701//
NAlpha2: 18
NElect   18
Mult     1
The previous job contains 0 fragments, simply inherited here

Checking the input file for inconsistencies... 	...done.

--------------------------------------------------------------
User input:
--------------------------------------------------------------

$molecule
	READ
$end

$rem
	JOBTYPE	FREQ
	METHOD	M06
	BASIS	def2-TZVP
	ANHAR	TRUE
	SCF_CONVERGENCE	7
	VCI	4
$end
--------------------------------------------------------------
 ----------------------------------------------------------------
             Standard Nuclear Orientation (Angstroms)
    I     Atom           X                Y                Z
 ----------------------------------------------------------------
    1      P       0.0000357168     0.0000611906    -0.1284793227
    2      H       0.3584190298    -1.1351385628     0.6420883886
    3      H       0.8033523487     0.8776535610     0.6428451773
    4      H      -1.1623071307     0.2565671432     0.6422562742
 ----------------------------------------------------------------
 Molecular Point Group                 C1    NOp =  1
 Largest Abelian Subgroup              C1    NOp =  1
 Nuclear Repulsion Energy =          17.56344656 hartrees
 There are        9 alpha and        9 beta electrons
 Requested basis set is def2-TZVP
 There are 25 shells and 55 basis functions

 Total QAlloc Memory Limit   2000 MB
 Mega-Array Size       188 MB
 MEM_STATIC part       192 MB

                       Distance Matrix (Angstroms)
             P (  1)   H (  2)   H (  3)
   H (  2)  1.418059
   H (  3)  1.417895  2.061383
   H (  4)  1.418051  2.061420  2.061448
 
 A cutoff of  1.0D-10 yielded    325 shell pairs
 There are      1605 function pairs (      1929 Cartesian)
 Smallest overlap matrix eigenvalue = 1.34E-02
 Guess from superposition of atomic densities
 Warning:  Energy on first SCF cycle will be non-variational
 SAD guess density has 18.000000 electrons

 -----------------------------------------------------------------------
  General SCF calculation program by
  Eric Jon Sundstrom, Paul Horn, Yuezhi Mao, Dmitri Zuev, Alec White,
  David Stuck, Shaama M.S., Shane Yost, Joonho Lee, David Small,
  Daniel Levine, Susi Lehtola, Hugh Burton, Evgeny Epifanovsky
 -----------------------------------------------------------------------
 Exchange:     0.2700 Hartree-Fock + 1.0000 M06
 Correlation:  1.0000 M06
 Using SG-3 standard quadrature grid
 using 4 threads for integral computing
 -------------------------------------------------------
 OpenMP Integral computing Module                
 Release: version 2.0, May 2017, Q-Chem Inc. Pleasanton 
 -------------------------------------------------------
 A restricted SCF calculation will be
 performed using DIIS
 SCF converges when DIIS error is below 1.0e-07
 ---------------------------------------
  Cycle       Energy         DIIS error
 ---------------------------------------
    1    -343.0558711106      5.49e-02  
    2    -343.1188473153      2.64e-03  
    3    -343.1217397340      2.08e-03  
    4    -343.1233538995      2.97e-04  
    5    -343.1233747918      6.27e-05  
    6    -343.1233765290      2.00e-05  
    7    -343.1233767480      1.73e-06  
    8    -343.1233767500      1.75e-07  
    9    -343.1233767501      2.67e-08  Convergence criterion met
 ---------------------------------------
 SCF time:   CPU 6.30s  wall 2.00s 
 SCF   energy in the final basis set =     -343.1233767501
 Total energy in the final basis set =     -343.1233767501
 
 --------------------------------------------------------------
 
                    Orbital Energies (a.u.)
 --------------------------------------------------------------
 
 Alpha MOs
 -- Occupied --
-77.2194  -6.6495  -4.7688  -4.7688  -4.7646  -0.6573  -0.3930  -0.3929
 -0.2864
 -- Virtual --
  0.0286   0.0286   0.0448   0.1864   0.1864   0.2300   0.2573   0.2573
  0.2630   0.3357   0.3358   0.4078   0.5341   0.5815   0.5815   1.1480
  1.1646   1.1646   1.1967   1.1967   1.2056   1.2066   1.2067   1.3269
  1.3762   1.3933   1.3933   1.5295   1.6098   1.6099   1.8246   1.8249
  1.8981   2.0036   2.1653   2.1657   2.3628   2.5678   2.5709   2.7194
  2.7502   2.7532   7.3404   7.3553   7.3553  14.1880
 --------------------------------------------------------------
 
          Ground-State Mulliken Net Atomic Charges

     Atom                 Charge (a.u.)
  ----------------------------------------
      1 P                    -0.132706
      2 H                     0.044414
      3 H                     0.043740
      4 H                     0.044552
  ----------------------------------------
  Sum of atomic charges =     0.000000

 -----------------------------------------------------------------
                    Cartesian Multipole Moments
 -----------------------------------------------------------------
    Charge (ESU x 10^10)
                -0.0000
    Dipole Moment (Debye)
         X       0.0003      Y       0.0003      Z       0.5439
       Tot       0.5439
    Quadrupole Moments (Debye-Ang)
        XX     -14.6845     XY      -0.0002     YY     -14.6847
        XZ       0.0003     YZ       0.0007     ZZ     -16.8186
    Octopole Moments (Debye-Ang^2)
       XXX       0.0375    XXY      -0.0260    XYY      -0.0341
       YYY       0.0290    XXZ       0.1703    XYZ      -0.0006
       YYZ       0.1698    XZZ      -0.0001    YZZ      -0.0001
       ZZZ       0.9981
    Hexadecapole Moments (Debye-Ang^3)
      XXXX     -30.7041   XXXY       0.0010   XXYY     -10.2342
      XYYY       0.0006   YYYY     -30.7024   XXXZ      -0.4132
      XXYZ       0.3177   XYYZ       0.4153   YYYZ      -0.3150
      XXZZ     -10.6083   XYZZ       0.0001   YYZZ     -10.6084
      XZZZ       0.0015   YZZZ       0.0024   ZZZZ     -35.0719
 -----------------------------------------------------------------
 Calculating MO derivatives via CPSCF
    1     0    15    0.0404512  
    2     0    15    0.0108186  
    3     0    15    0.0022730  
    4     0    15    0.0001671  
    5    11     4    0.0000090  
    6    15     0    0.0000007  Converged
 Time for AOints: 0.5 s (CPU) 0.1 s (wall)
 ------------------------------------------------------------------------------
                     AOints        : Timing summary (seconds)
 ------------------------------------------------------------------------------
     job step          cpu (% of tot)      sys (% of tot)     wall (% of tot)
 ------------------------------------------------------------------------------
  AOints            0.4542E+00 ( 2.8)   0.2000E-05 ( 9.5)   0.1211E+00 ( 3.0)
 ------------------------------------------------------------------------------
   Grand Totals     0.1611E+02          0.2100E-04          0.4066E+01
 ------------------------------------------------------------------------------
 Polarizability Matrix (a.u.)
            1           2           3
    1 -26.1181051   0.0033094   0.0059333
    2   0.0033094 -26.1175630   0.0077828
    3   0.0059333   0.0077828 -25.2410505
 Calculating analytic Hessian of the SCF energy
 
 Direct stationary perturbation theory relativistic correction:
 
 rels  =       0.453339840848
 relv  =      -1.599044981886
 rel2e =       0.335613426722
 E_rel =      -0.810091714316
 
 Hessian of the SCF Energy
            1           2           3           4           5           6
    1   0.2521801  -0.0003021   0.0001953  -0.0354617   0.0341326  -0.0328457
    2  -0.0003021   0.2515988   0.0000948   0.0341525  -0.1325476   0.1031960
    3   0.0001953   0.0000948   0.2456059  -0.0232846   0.0729094  -0.0821147
    4  -0.0354617   0.0341525  -0.0232846   0.0375960  -0.0392139   0.0264401
    5   0.0341326  -0.1325476   0.0729094  -0.0392139   0.1492556  -0.0829440
    6  -0.0328457   0.1031960  -0.0821147   0.0264401  -0.0829440   0.0744987
    7  -0.0787512  -0.0589812  -0.0517382   0.0033650   0.0031424   0.0032341
    8  -0.0589608  -0.0891125  -0.0563910  -0.0107178  -0.0127750  -0.0101518
    9  -0.0731501  -0.0798559  -0.0817188   0.0071733   0.0077948   0.0038279
   10  -0.1379672   0.0251308   0.0748274  -0.0054994   0.0019389   0.0031716
   11   0.0251303  -0.0299388  -0.0166131   0.0157792  -0.0039331  -0.0101003
   12   0.1058005  -0.0234349  -0.0817724  -0.0103288   0.0022398   0.0037880
            7           8           9          10          11          12
    1  -0.0787512  -0.0589608  -0.0731501  -0.1379672   0.0251303   0.1058005
    2  -0.0589812  -0.0891125  -0.0798559   0.0251308  -0.0299388  -0.0234349
    3  -0.0517382  -0.0563910  -0.0817188   0.0748274  -0.0166131  -0.0817724
    4   0.0033650  -0.0107178   0.0071733  -0.0054994   0.0157792  -0.0103288
    5   0.0031424  -0.0127750   0.0077948   0.0019389  -0.0039331   0.0022398
    6   0.0032341  -0.0101518   0.0038279   0.0031716  -0.0101003   0.0037880
    7   0.0873673   0.0678710   0.0588688  -0.0119810  -0.0120322  -0.0103647
    8   0.0678710   0.0993113   0.0642336   0.0018076   0.0025761   0.0023092
    9   0.0588688   0.0642336   0.0740601   0.0071081   0.0078275   0.0038307
   10  -0.0119810   0.0018076   0.0071081   0.1554476  -0.0288773  -0.0851070
   11  -0.0120322   0.0025761   0.0078275  -0.0288773   0.0312958   0.0188858
   12  -0.0103647   0.0023092   0.0038307  -0.0851070   0.0188858   0.0741537
 **********************************************************************
 **                                                                  **
 **                       VIBRATIONAL ANALYSIS                       **
 **                       --------------------                       **
 **                                                                  **
 **        VIBRATIONAL FREQUENCIES (CM**-1) AND NORMAL MODES         **
 **     FORCE CONSTANTS (mDYN/ANGSTROM) AND REDUCED MASSES (AMU)     **
 **                  INFRARED INTENSITIES (KM/MOL)                   **
 **                                                                  **
 **********************************************************************
 

 Mode:                 1                      2                      3
 Frequency:      1034.93                1139.86                1143.70
 Force Cnst:      0.6785                 0.7849                 0.7902
 Red. Mass:       1.0752                 1.0253                 1.0253
 IR Active:          YES                    YES                    YES
 IR Intens:       17.724                  8.671                  8.707
 Raman Active:       YES                    YES                    YES
               X      Y      Z        X      Y      Z        X      Y      Z
 P          0.000 -0.000 -0.047   -0.011 -0.022 -0.000    0.022 -0.011  0.001
 H         -0.101  0.292  0.482    0.521 -0.004 -0.231   -0.447 -0.308 -0.228
 H         -0.216 -0.222  0.484   -0.293 -0.022  0.308   -0.462  0.514 -0.097
 H          0.307 -0.066  0.490    0.100  0.692 -0.075    0.243  0.120  0.305
 TransDip   0.001 -0.001 -0.135   -0.042 -0.084 -0.000    0.085 -0.042  0.002

 Mode:                 4                      5                      6
 Frequency:      2408.08                2415.52                2416.59
 Force Cnst:      3.5261                 3.5779                 3.5814
 Red. Mass:       1.0320                 1.0408                 1.0409
 IR Active:          YES                    YES                    YES
 IR Intens:       32.069                 59.388                 59.643
 Raman Active:       YES                    YES                    YES
               X      Y      Z        X      Y      Z        X      Y      Z
 P          0.003  0.001  0.028   -0.015 -0.029  0.002   -0.029  0.016  0.002
 H         -0.146  0.465 -0.283   -0.161  0.494 -0.331    0.135 -0.442  0.298
 H         -0.377 -0.411 -0.329    0.422  0.459  0.402    0.090  0.107  0.092
 H          0.433 -0.095 -0.255    0.215 -0.054 -0.140    0.673 -0.147 -0.440
 TransDip   0.023  0.011  0.180   -0.115 -0.218  0.014   -0.218  0.117  0.010

 STANDARD THERMODYNAMIC QUANTITIES AT   298.15 K  AND     1.00 ATM

   This Molecule has  0 Imaginary Frequencies
   Zero point vibrational energy:       15.094 kcal/mol

   Atom    1 Element P  Has Mass   30.97376
   Atom    2 Element H  Has Mass    1.00783
   Atom    3 Element H  Has Mass    1.00783
   Atom    4 Element H  Has Mass    1.00783
   Molecular Mass:    33.997250 amu
   Principal axes and moments of inertia in amu*Bohr^2:
                             1           2           3
    Eigenvalues --       13.49219    13.49275    15.29384
          X               1.00000    -0.00015     0.00008
          Y               0.00015     1.00000     0.00013
          Z              -0.00008    -0.00013     1.00000
   Rotational Symmetry Number is   1
   The Molecule is an Asymmetric Top
   Translational Enthalpy:        0.889 kcal/mol
   Rotational Enthalpy:           0.889 kcal/mol
   Vibrational Enthalpy:         15.141 kcal/mol
   gas constant (RT):             0.592 kcal/mol
   Translational Entropy:        36.502  cal/mol.K
   Rotational Entropy:           15.684  cal/mol.K
   Vibrational Entropy:           0.187  cal/mol.K

   Total Enthalpy:               17.511 kcal/mol
   Total Entropy:                52.373  cal/mol.K
 =====================================================
 =====================================================
 = Starting finite difference calculation for ANHAR  =
 Finite diff step size:  9.99854e-02 a.u.

 Low frequencies less than 300 will be treated as rotation
 Anharmonic Force Field will start with mode 1

 Eng[0,0,0,0] = -3.43123376750105e+02


 You need 0.0002128 GB memory


 CoordNormalMode -1 , 0 , 0 , 0
 ----------------------------------------------------------------
             Standard Nuclear Orientation (Angstroms)
    I     Atom           X                Y                Z
 ----------------------------------------------------------------
    1      P       0.0000177947     0.0000682778    -0.1259708582
    2      H       0.3637574266    -1.1506015363     0.6165602913
    3      H       0.8147928537     0.8893947225     0.6172268967
    4      H      -1.1785352289     0.2600711430     0.6163097129
 ----------------------------------------------------------------
 Nuclear Repulsion Energy =          17.56663076 hartrees
 There are        9 alpha and        9 beta electrons

                       Distance Matrix (Angstroms)
             P (  1)   H (  2)   H (  3)
   H (  2)  1.416933
   H (  3)  1.416723  2.089263
   H (  4)  1.416887  2.090135  2.090312
 
 Requested basis set is def2-TZVP
 There are 25 shells and 55 basis functions
 A cutoff of  1.0D-10 yielded    325 shell pairs
 There are      1605 function pairs (      1929 Cartesian)
 Smallest overlap matrix eigenvalue = 1.37E-02
 Guess MOs from SCF MO coefficient file

 -----------------------------------------------------------------------
  General SCF calculation program by
  Eric Jon Sundstrom, Paul Horn, Yuezhi Mao, Dmitri Zuev, Alec White,
  David Stuck, Shaama M.S., Shane Yost, Joonho Lee, David Small,
  Daniel Levine, Susi Lehtola, Hugh Burton, Evgeny Epifanovsky
 -----------------------------------------------------------------------
 Exchange:     0.2700 Hartree-Fock + 1.0000 M06
 Correlation:  1.0000 M06
 Using SG-3 standard quadrature grid
 using 4 threads for integral computing
 -------------------------------------------------------
 OpenMP Integral computing Module                
 Release: version 2.0, May 2017, Q-Chem Inc. Pleasanton 
 -------------------------------------------------------
 A restricted SCF calculation will be
 performed using DIIS
 SCF converges when DIIS error is below 1.0e-07
 ---------------------------------------
  Cycle       Energy         DIIS error
 ---------------------------------------
    1    -343.1230692334      4.56e-04  
    2    -343.1231587499      4.07e-05  
    3    -343.1231596774      1.33e-05  
    4    -343.1231597435      3.90e-06  
    5    -343.1231597524      1.60e-06  
    6    -343.1231597538      1.93e-07  
    7    -343.1231597535      4.24e-08  Convergence criterion met
 ---------------------------------------
 SCF time:   CPU 4.92s  wall 1.00s 
 SCF   energy in the final basis set =     -343.1231597535
 Total energy in the final basis set =     -343.1231597535
 
 --------------------------------------------------------------
 
                    Orbital Energies (a.u.)
 --------------------------------------------------------------
 
 Alpha MOs
 -- Occupied --
-77.2195  -6.6497  -4.7690  -4.7690  -4.7647  -0.6571  -0.3963  -0.3961
 -0.2820
 -- Virtual --
  0.0299   0.0300   0.0437   0.1852   0.1853   0.2295   0.2567   0.2567
  0.2607   0.3365   0.3366   0.4048   0.5302   0.5862   0.5864   1.1398
  1.1611   1.1612   1.1966   1.1967   1.2054   1.2080   1.2082   1.3231
  1.3845   1.3910   1.3911   1.5264   1.6091   1.6092   1.8378   1.8382
  1.9157   1.9772   2.1437   2.1447   2.3760   2.5634   2.5673   2.7018
  2.7515   2.7546   7.3363   7.3574   7.3575  14.1943
 --------------------------------------------------------------
 
          Ground-State Mulliken Net Atomic Charges

     Atom                 Charge (a.u.)
  ----------------------------------------
      1 P                    -0.130589
      2 H                     0.043735
      3 H                     0.042979
      4 H                     0.043875
  ----------------------------------------
  Sum of atomic charges =     0.000000

 -----------------------------------------------------------------
                    Cartesian Multipole Moments
 -----------------------------------------------------------------
    Charge (ESU x 10^10)
                -0.0000
    Dipole Moment (Debye)
         X      -0.0000      Y       0.0005      Z       0.5791
       Tot       0.5791
    Quadrupole Moments (Debye-Ang)
        XX     -14.6170     XY      -0.0006     YY     -14.6192
        XZ       0.0011     YZ       0.0004     ZZ     -16.9559
    Octopole Moments (Debye-Ang^2)
       XXX       0.0007    XXY       0.0015    XYY       0.0011
       YYY       0.0028    XXZ       0.2375    XYZ      -0.0008
       YYZ       0.2364    XZZ      -0.0000    YZZ       0.0000
       ZZZ       1.1504
    Hexadecapole Moments (Debye-Ang^3)
      XXXX     -30.7490   XXXY       0.0020   XXYY     -10.2478
      XYYY       0.0007   YYYY     -30.7418   XXXZ      -0.4199
      XXYZ       0.3224   XYYZ       0.4209   YYYZ      -0.3190
      XXZZ     -10.6406   XYZZ       0.0003   YYZZ     -10.6395
      XZZZ       0.0007   YZZZ       0.0029   ZZZZ     -34.9159
 -----------------------------------------------------------------
 Eng[-1,0,0,0] = -3.43123159753455e+02
 points done 1/204
 CoordNormalMode -1 , -1 , 0 , 0
 ----------------------------------------------------------------
             Standard Nuclear Orientation (Angstroms)
    I     Atom           X                Y                Z
 ----------------------------------------------------------------
    1      P      -0.0000001275     0.0000753650    -0.1234623937
    2      H       0.3690958233    -1.1660645098     0.5910321940
    3      H       0.8262333587     0.9011358839     0.5916086162
    4      H      -1.1947633271     0.2635751429     0.5903631516
 ----------------------------------------------------------------
 Nuclear Repulsion Energy =          17.56118885 hartrees
 There are        9 alpha and        9 beta electrons

                       Distance Matrix (Angstroms)
             P (  1)   H (  2)   H (  3)
   H (  2)  1.416551
   H (  3)  1.416297  2.117143
   H (  4)  1.416488  2.118850  2.119177
 
 Requested basis set is def2-TZVP
 There are 25 shells and 55 basis functions
 A cutoff of  1.0D-10 yielded    325 shell pairs
 There are      1605 function pairs (      1929 Cartesian)
 Smallest overlap matrix eigenvalue = 1.41E-02
 Guess MOs from SCF MO coefficient file

 -----------------------------------------------------------------------
  General SCF calculation program by
  Eric Jon Sundstrom, Paul Horn, Yuezhi Mao, Dmitri Zuev, Alec White,
  David Stuck, Shaama M.S., Shane Yost, Joonho Lee, David Small,
  Daniel Levine, Susi Lehtola, Hugh Burton, Evgeny Epifanovsky
 -----------------------------------------------------------------------
 Exchange:     0.2700 Hartree-Fock + 1.0000 M06
 Correlation:  1.0000 M06
 Using SG-3 standard quadrature grid
 using 4 threads for integral computing
 -------------------------------------------------------
 OpenMP Integral computing Module                
 Release: version 2.0, May 2017, Q-Chem Inc. Pleasanton 
 -------------------------------------------------------
 A restricted SCF calculation will be
 performed using DIIS
 SCF converges when DIIS error is below 1.0e-07
 ---------------------------------------
  Cycle       Energy         DIIS error
 ---------------------------------------
    1    -343.1224324337      4.55e-04  
    2    -343.1225205253      4.32e-05  
    3    -343.1225215087      1.56e-05  
    4    -343.1225215938      3.07e-06  
    5    -343.1225216000      9.18e-07  
    6    -343.1225216006      2.11e-07  
    7    -343.1225216012      4.89e-08  Convergence criterion met
 ---------------------------------------
 SCF time:   CPU 4.90s  wall 2.00s 
 SCF   energy in the final basis set =     -343.1225216012
 Total energy in the final basis set =     -343.1225216012
 
 --------------------------------------------------------------
 
                    Orbital Energies (a.u.)
 --------------------------------------------------------------
 
 Alpha MOs
 -- Occupied --
-77.2196  -6.6499  -4.7692  -4.7692  -4.7648  -0.6568  -0.3993  -0.3991
 -0.2776
 -- Virtual --
  0.0311   0.0313   0.0423   0.1841   0.1842   0.2284   0.2563   0.2563
  0.2582   0.3373   0.3374   0.4030   0.5263   0.5906   0.5909   1.1318
  1.1577   1.1580   1.1965   1.1966   1.2051   1.2092   1.2095   1.3186
  1.3896   1.3898   1.3925   1.5234   1.6081   1.6082   1.8516   1.8524
  1.9343   1.9535   2.1211   2.1228   2.3889   2.5562   2.5609   2.6838
  2.7549   2.7580   7.3320   7.3593   7.3595  14.1968
 --------------------------------------------------------------
 
          Ground-State Mulliken Net Atomic Charges

     Atom                 Charge (a.u.)
  ----------------------------------------
      1 P                    -0.129505
      2 H                     0.043399
      3 H                     0.042564
      4 H                     0.043543
  ----------------------------------------
  Sum of atomic charges =     0.000000

 -----------------------------------------------------------------
                    Cartesian Multipole Moments
 -----------------------------------------------------------------
    Charge (ESU x 10^10)
                -0.0000
    Dipole Moment (Debye)
         X      -0.0003      Y       0.0007      Z       0.6131
       Tot       0.6131
    Quadrupole Moments (Debye-Ang)
        XX     -14.5532     XY      -0.0009     YY     -14.5574
        XZ       0.0019     YZ       0.0002     ZZ     -17.0926
    Octopole Moments (Debye-Ang^2)
       XXX      -0.0382    XXY       0.0308    XYY       0.0385
       YYY      -0.0252    XXZ       0.2991    XYZ      -0.0010
       YYZ       0.2976    XZZ       0.0000    YZZ       0.0001
       ZZZ       1.3006
    Hexadecapole Moments (Debye-Ang^3)
      XXXX     -30.8124   XXXY       0.0031   XXYY     -10.2674
      XYYY       0.0009   YYYY     -30.7992   XXXZ      -0.4246
      XXYZ       0.3256   XYYZ       0.4248   YYYZ      -0.3217
      XXZZ     -10.6845   XYZZ       0.0006   YYZZ     -10.6818
      XZZZ      -0.0001   YZZZ       0.0033   ZZZZ     -34.7815
 -----------------------------------------------------------------
 Eng[-1,-1,0,0] = -3.43122521601158e+02
 points done 2/204
 CoordNormalMode -2 , 0 , 0 , 0
 ----------------------------------------------------------------
             Standard Nuclear Orientation (Angstroms)
    I     Atom           X                Y                Z
 ----------------------------------------------------------------
    1      P       0.0005991666     0.0012080627    -0.1284769181
    2      H       0.3308773585    -1.1349409982     0.6543234784
    3      H       0.8188565803     0.8787972343     0.6265530062
    4      H      -1.1675862611     0.2199789455     0.6462394558
 ----------------------------------------------------------------
 Nuclear Repulsion Energy =          17.55932522 hartrees
 There are        9 alpha and        9 beta electrons

                       Distance Matrix (Angstroms)
             P (  1)   H (  2)   H (  3)
   H (  2)  1.418695
   H (  3)  1.417666  2.072206
   H (  4)  1.418698  2.020214  2.092937
 
 Requested basis set is def2-TZVP
 There are 25 shells and 55 basis functions
 A cutoff of  1.0D-10 yielded    325 shell pairs
 There are      1605 function pairs (      1929 Cartesian)
 Smallest overlap matrix eigenvalue = 1.34E-02
 Guess MOs from SCF MO coefficient file

 -----------------------------------------------------------------------
  General SCF calculation program by
  Eric Jon Sundstrom, Paul Horn, Yuezhi Mao, Dmitri Zuev, Alec White,
  David Stuck, Shaama M.S., Shane Yost, Joonho Lee, David Small,
  Daniel Levine, Susi Lehtola, Hugh Burton, Evgeny Epifanovsky
 -----------------------------------------------------------------------
 Exchange:     0.2700 Hartree-Fock + 1.0000 M06
 Correlation:  1.0000 M06
 Using SG-3 standard quadrature grid
 using 4 threads for integral computing
 -------------------------------------------------------
 OpenMP Integral computing Module                
 Release: version 2.0, May 2017, Q-Chem Inc. Pleasanton 
 -------------------------------------------------------
 A restricted SCF calculation will be
 performed using DIIS
 SCF converges when DIIS error is below 1.0e-07
 ---------------------------------------
  Cycle       Energy         DIIS error
 ---------------------------------------
    1    -343.1226963503      1.00e-03  
    2    -343.1231171324      8.70e-05  
    3    -343.1231216956      3.28e-05  
    4    -343.1231221165      8.82e-06  
    5    -343.1231221621      2.96e-06  
    6    -343.1231221658      4.11e-07  
    7    -343.1231221657      8.71e-08  Convergence criterion met
 ---------------------------------------
 SCF time:   CPU 4.91s  wall 1.00s 
 SCF   energy in the final basis set =     -343.1231221657
 Total energy in the final basis set =     -343.1231221657
 
 --------------------------------------------------------------
 
                    Orbital Energies (a.u.)
 --------------------------------------------------------------
 
 Alpha MOs
 -- Occupied --
-77.2195  -6.6495  -4.7688  -4.7688  -4.7646  -0.6573  -0.3970  -0.3887
 -0.2864
 -- Virtual --
  0.0259   0.0311   0.0448   0.1851   0.1878   0.2297   0.2558   0.2582
  0.2636   0.3342   0.3373   0.4082   0.5338   0.5754   0.5878   1.1469
  1.1622   1.1678   1.1955   1.1977   1.2038   1.2057   1.2098   1.3259
  1.3761   1.3908   1.3970   1.5296   1.6080   1.6113   1.8131   1.8358
  1.9019   2.0011   2.1393   2.1931   2.3612   2.5532   2.5844   2.7163
  2.7451   2.7617   7.3399   7.3515   7.3591  14.1863
 --------------------------------------------------------------
 
          Ground-State Mulliken Net Atomic Charges

     Atom                 Charge (a.u.)
  ----------------------------------------
      1 P                    -0.132952
      2 H                     0.045039
      3 H                     0.043050
      4 H                     0.044863
  ----------------------------------------
  Sum of atomic charges =     0.000000

 -----------------------------------------------------------------
                    Cartesian Multipole Moments
 -----------------------------------------------------------------
    Charge (ESU x 10^10)
                -0.0000
    Dipole Moment (Debye)
         X       0.0111      Y       0.0220      Z       0.5445
       Tot       0.5450
    Quadrupole Moments (Debye-Ang)
        XX     -14.6729     XY       0.0742     YY     -14.7003
        XZ      -0.0244     YZ      -0.0480     ZZ     -16.8190
    Octopole Moments (Debye-Ang^2)
       XXX       0.0935    XXY       0.0071    XYY      -0.0185
       YYY       0.1355    XXZ       0.1735    XYZ       0.0245
       YYZ       0.1647    XZZ      -0.0017    YZZ      -0.0035
       ZZZ       0.9964
    Hexadecapole Moments (Debye-Ang^3)
      XXXX     -30.7404   XXXY      -0.0833   XXYY     -10.2613
      XYYY      -0.1097   YYYY     -30.6558   XXXZ      -0.3777
      XXYZ       0.3382   XYYZ       0.4243   YYYZ      -0.2468
      XXZZ     -10.6213   XYZZ      -0.0384   YYZZ     -10.6032
      XZZZ       0.0283   YZZZ       0.0545   ZZZZ     -35.0746
 -----------------------------------------------------------------
 Eng[-2,0,0,0] = -3.43123122165715e+02
 points done 3/204
 CoordNormalMode -2 , -2 , 0 , 0
 ----------------------------------------------------------------
             Standard Nuclear Orientation (Angstroms)
    I     Atom           X                Y                Z
 ----------------------------------------------------------------
    1      P       0.0011626164     0.0023549349    -0.1284745135
    2      H       0.3033356872    -1.1347434335     0.6665585683
    3      H       0.8343608120     0.8799409076     0.6102608351
    4      H      -1.1728653914     0.1833907478     0.6502226374
 ----------------------------------------------------------------
 Nuclear Repulsion Energy =          17.54726520 hartrees
 There are        9 alpha and        9 beta electrons

                       Distance Matrix (Angstroms)
             P (  1)   H (  2)   H (  3)
   H (  2)  1.419993
   H (  3)  1.417782  2.084253
   H (  4)  1.420382  1.979120  2.125026
 
 Requested basis set is def2-TZVP
 There are 25 shells and 55 basis functions
 A cutoff of  1.0D-10 yielded    325 shell pairs
 There are      1605 function pairs (      1929 Cartesian)
 Smallest overlap matrix eigenvalue = 1.33E-02
 Guess MOs from SCF MO coefficient file

 -----------------------------------------------------------------------
  General SCF calculation program by
  Eric Jon Sundstrom, Paul Horn, Yuezhi Mao, Dmitri Zuev, Alec White,
  David Stuck, Shaama M.S., Shane Yost, Joonho Lee, David Small,
  Daniel Levine, Susi Lehtola, Hugh Burton, Evgeny Epifanovsky
 -----------------------------------------------------------------------
 Exchange:     0.2700 Hartree-Fock + 1.0000 M06
 Correlation:  1.0000 M06
 Using SG-3 standard quadrature grid
 using 4 threads for integral computing
 -------------------------------------------------------
 OpenMP Integral computing Module                
 Release: version 2.0, May 2017, Q-Chem Inc. Pleasanton 
 -------------------------------------------------------
 A restricted SCF calculation will be
 performed using DIIS
 SCF converges when DIIS error is below 1.0e-07
 ---------------------------------------
  Cycle       Energy         DIIS error
 ---------------------------------------
    1    -343.1222922238      4.08e-04  
    2    -343.1223578288      3.75e-05  
    3    -343.1223587504      1.82e-05  
    4    -343.1223589046      5.13e-06  
    5    -343.1223589198      9.78e-07  
    6    -343.1223589202      2.13e-07  
    7    -343.1223589196      5.07e-08  Convergence criterion met
 ---------------------------------------
 SCF time:   CPU 4.91s  wall 1.00s 
 SCF   energy in the final basis set =     -343.1223589196
 Total energy in the final basis set =     -343.1223589196
 
 --------------------------------------------------------------
 
                    Orbital Energies (a.u.)
 --------------------------------------------------------------
 
 Alpha MOs
 -- Occupied --
-77.2197  -6.6497  -4.7690  -4.7689  -4.7648  -0.6573  -0.4011  -0.3843
 -0.2863
 -- Virtual --
  0.0231   0.0331   0.0447   0.1837   0.1893   0.2287   0.2538   0.2591
  0.2647   0.3326   0.3387   0.4093   0.5330   0.5692   0.5944   1.1444
  1.1598   1.1720   1.1938   1.1986   1.2010   1.2057   1.2139   1.3227
  1.3758   1.3904   1.4014   1.5298   1.6056   1.6126   1.8018   1.8473
  1.9113   1.9941   2.1137   2.2219   2.3572   2.5365   2.5985   2.7070
  2.7440   2.7734   7.3386   7.3478   7.3630  14.1813
 --------------------------------------------------------------
 
          Ground-State Mulliken Net Atomic Charges

     Atom                 Charge (a.u.)
  ----------------------------------------
      1 P                    -0.133459
      2 H                     0.045717
      3 H                     0.042431
      4 H                     0.045311
  ----------------------------------------
  Sum of atomic charges =     0.000000

 -----------------------------------------------------------------
                    Cartesian Multipole Moments
 -----------------------------------------------------------------
    Charge (ESU x 10^10)
                -0.0000
    Dipole Moment (Debye)
         X       0.0216      Y       0.0434      Z       0.5460
       Tot       0.5482
    Quadrupole Moments (Debye-Ang)
        XX     -14.6667     XY       0.1509     YY     -14.7182
        XZ      -0.0508     YZ      -0.0972     ZZ     -16.8194
    Octopole Moments (Debye-Ang^2)
       XXX       0.1580    XXY       0.0370    XYY      -0.0065
       YYY       0.2463    XXZ       0.1737    XYZ       0.0511
       YYZ       0.1588    XZZ      -0.0035    YZZ      -0.0066
       ZZZ       0.9908
    Hexadecapole Moments (Debye-Ang^3)
      XXXX     -30.8162   XXXY      -0.1636   XXYY     -10.2934
      XYYY      -0.2197   YYYY     -30.6417   XXXZ      -0.3363
      XXYZ       0.3555   XYYZ       0.4292   YYYZ      -0.1750
      XXZZ     -10.6438   XYZZ      -0.0741   YYZZ     -10.6031
      XZZZ       0.0580   YZZZ       0.1074   ZZZZ     -35.0823
 -----------------------------------------------------------------
 Eng[-2,-2,0,0] = -3.43122358919577e+02
 points done 4/204
 CoordNormalMode -3 , 0 , 0 , 0
 ----------------------------------------------------------------
             Standard Nuclear Orientation (Angstroms)
    I     Atom           X                Y                Z
 ----------------------------------------------------------------
    1      P      -0.0011099774     0.0006226066    -0.1285129891
    2      H       0.3820482878    -1.1188678062     0.6541279621
    3      H       0.8278154296     0.8504575887     0.6479540861
    4      H      -1.1751887130     0.2502382945     0.6261424664
 ----------------------------------------------------------------
 Nuclear Repulsion Energy =          17.55959337 hartrees
 There are        9 alpha and        9 beta electrons

                       Distance Matrix (Angstroms)
             P (  1)   H (  2)   H (  3)
   H (  2)  1.418660
   H (  3)  1.418534  2.019156
   H (  4)  1.417841  2.073698  2.091116
 
 Requested basis set is def2-TZVP
 There are 25 shells and 55 basis functions
 A cutoff of  1.0D-10 yielded    325 shell pairs
 There are      1605 function pairs (      1929 Cartesian)
 Smallest overlap matrix eigenvalue = 1.33E-02
 Guess MOs from SCF MO coefficient file

 -----------------------------------------------------------------------
  General SCF calculation program by
  Eric Jon Sundstrom, Paul Horn, Yuezhi Mao, Dmitri Zuev, Alec White,
  David Stuck, Shaama M.S., Shane Yost, Joonho Lee, David Small,
  Daniel Levine, Susi Lehtola, Hugh Burton, Evgeny Epifanovsky
 -----------------------------------------------------------------------
 Exchange:     0.2700 Hartree-Fock + 1.0000 M06
 Correlation:  1.0000 M06
 Using SG-3 standard quadrature grid
 using 4 threads for integral computing
 -------------------------------------------------------
 OpenMP Integral computing Module                
 Release: version 2.0, May 2017, Q-Chem Inc. Pleasanton 
 -------------------------------------------------------
 A restricted SCF calculation will be
 performed using DIIS
 SCF converges when DIIS error is below 1.0e-07
 ---------------------------------------
  Cycle       Energy         DIIS error
 ---------------------------------------
    1    -343.1227913962      9.09e-04  
    2    -343.1231171040      8.19e-05  
    3    -343.1231215387      3.95e-05  
    4    -343.1231222702      1.17e-05  
    5    -343.1231223511      1.59e-06  
    6    -343.1231223527      3.83e-07  
    7    -343.1231223531      8.22e-08  Convergence criterion met
 ---------------------------------------
 SCF time:   CPU 4.91s  wall 2.00s 
 SCF   energy in the final basis set =     -343.1231223531
 Total energy in the final basis set =     -343.1231223531
 
 --------------------------------------------------------------
 
                    Orbital Energies (a.u.)
 --------------------------------------------------------------
 
 Alpha MOs
 -- Occupied --
-77.2195  -6.6495  -4.7688  -4.7688  -4.7646  -0.6573  -0.3970  -0.3887
 -0.2865
 -- Virtual --
  0.0259   0.0310   0.0448   0.1851   0.1878   0.2297   0.2558   0.2583
  0.2636   0.3342   0.3373   0.4083   0.5339   0.5753   0.5877   1.1470
  1.1621   1.1680   1.1954   1.1977   1.2037   1.2057   1.2099   1.3259
  1.3759   1.3909   1.3970   1.5296   1.6081   1.6113   1.8133   1.8355
  1.9016   2.0015   2.1392   2.1940   2.3614   2.5513   2.5867   2.7149
  2.7472   2.7616   7.3400   7.3515   7.3591  14.1863
 --------------------------------------------------------------
 
          Ground-State Mulliken Net Atomic Charges

     Atom                 Charge (a.u.)
  ----------------------------------------
      1 P                    -0.132869
      2 H                     0.044903
      3 H                     0.044036
      4 H                     0.043930
  ----------------------------------------
  Sum of atomic charges =     0.000000

 -----------------------------------------------------------------
                    Cartesian Multipole Moments
 -----------------------------------------------------------------
    Charge (ESU x 10^10)
                -0.0000
    Dipole Moment (Debye)
         X      -0.0215      Y       0.0110      Z       0.5438
       Tot       0.5444
    Quadrupole Moments (Debye-Ang)
        XX     -14.6135     XY      -0.0160     YY     -14.7614
        XZ       0.0495     YZ      -0.0228     ZZ     -16.8169
    Octopole Moments (Debye-Ang^2)
       XXX      -0.0656    XXY      -0.0116    XYY      -0.0723
       YYY       0.0813    XXZ       0.1932    XYZ      -0.0062
       YYZ       0.1429    XZZ       0.0034    YZZ      -0.0017
       ZZZ       0.9941
    Hexadecapole Moments (Debye-Ang^3)
      XXXX     -30.9245   XXXY       0.0423   XXYY     -10.2295
      XYYY      -0.0040   YYYY     -30.5296   XXXZ      -0.4780
      XXYZ       0.3266   XYYZ       0.3906   YYYZ      -0.2810
      XXZZ     -10.6504   XYZZ       0.0066   YYZZ     -10.5727
      XZZZ      -0.0515   YZZZ       0.0272   ZZZZ     -35.0762
 -----------------------------------------------------------------
 Eng[-3,0,0,0] = -3.43123122353060e+02
 points done 5/204
 CoordNormalMode -3 , -3 , 0 , 0
 ----------------------------------------------------------------
             Standard Nuclear Orientation (Angstroms)
    I     Atom           X                Y                Z
 ----------------------------------------------------------------
    1      P      -0.0022556716     0.0011840225    -0.1285466555
    2      H       0.4056775459    -1.1025970496     0.6661675356
    3      H       0.8522785105     0.8232616163     0.6530629949
    4      H      -1.1880702954     0.2439094458     0.6100286587
 ----------------------------------------------------------------
 Nuclear Repulsion Energy =          17.54780498 hartrees
 There are        9 alpha and        9 beta electrons

                       Distance Matrix (Angstroms)
             P (  1)   H (  2)   H (  3)
   H (  2)  1.419969
   H (  3)  1.420195  1.977007
   H (  4)  1.417944  2.087166  2.121444
 
 Requested basis set is def2-TZVP
 There are 25 shells and 55 basis functions
 A cutoff of  1.0D-10 yielded    325 shell pairs
 There are      1605 function pairs (      1929 Cartesian)
 Smallest overlap matrix eigenvalue = 1.33E-02
 Guess MOs from SCF MO coefficient file

 -----------------------------------------------------------------------
  General SCF calculation program by
  Eric Jon Sundstrom, Paul Horn, Yuezhi Mao, Dmitri Zuev, Alec White,
  David Stuck, Shaama M.S., Shane Yost, Joonho Lee, David Small,
  Daniel Levine, Susi Lehtola, Hugh Burton, Evgeny Epifanovsky
 -----------------------------------------------------------------------
 Exchange:     0.2700 Hartree-Fock + 1.0000 M06
 Correlation:  1.0000 M06
 Using SG-3 standard quadrature grid
 using 4 threads for integral computing
 -------------------------------------------------------
 OpenMP Integral computing Module                
 Release: version 2.0, May 2017, Q-Chem Inc. Pleasanton 
 -------------------------------------------------------
 A restricted SCF calculation will be
 performed using DIIS
 SCF converges when DIIS error is below 1.0e-07
 ---------------------------------------
  Cycle       Energy         DIIS error
 ---------------------------------------
    1    -343.1222903730      4.08e-04  
    2    -343.1223563564      3.70e-05  
    3    -343.1223572784      1.78e-05  
    4    -343.1223574236      5.14e-06  
    5    -343.1223574388      9.78e-07  
    6    -343.1223574392      2.10e-07  
    7    -343.1223574387      4.92e-08  Convergence criterion met
 ---------------------------------------
 SCF time:   CPU 4.92s  wall 1.00s 
 SCF   energy in the final basis set =     -343.1223574387
 Total energy in the final basis set =     -343.1223574387
 
 --------------------------------------------------------------
 
                    Orbital Energies (a.u.)
 --------------------------------------------------------------
 
 Alpha MOs
 -- Occupied --
-77.2197  -6.6497  -4.7690  -4.7689  -4.7648  -0.6573  -0.4010  -0.3842
 -0.2864
 -- Virtual --
  0.0232   0.0330   0.0447   0.1838   0.1894   0.2287   0.2537   0.2592
  0.2648   0.3326   0.3387   0.4094   0.5331   0.5690   0.5943   1.1448
  1.1596   1.1724   1.1936   1.1986   1.2009   1.2057   1.2141   1.3228
  1.3755   1.3906   1.4014   1.5298   1.6057   1.6126   1.8019   1.8474
  1.9102   1.9952   2.1133   2.2235   2.3576   2.5351   2.6008   2.7050
  2.7462   2.7740   7.3388   7.3477   7.3631  14.1813
 --------------------------------------------------------------
 
          Ground-State Mulliken Net Atomic Charges

     Atom                 Charge (a.u.)
  ----------------------------------------
      1 P                    -0.133339
      2 H                     0.045480
      3 H                     0.044488
      4 H                     0.043370
  ----------------------------------------
  Sum of atomic charges =     0.000000

 -----------------------------------------------------------------
                    Cartesian Multipole Moments
 -----------------------------------------------------------------
    Charge (ESU x 10^10)
                -0.0000
    Dipole Moment (Debye)
         X      -0.0430      Y       0.0214      Z       0.5448
       Tot       0.5469
    Quadrupole Moments (Debye-Ang)
        XX     -14.5444     XY      -0.0339     YY     -14.8440
        XZ       0.1005     YZ      -0.0458     ZZ     -16.8152
    Octopole Moments (Debye-Ang^2)
       XXX      -0.1680    XXY      -0.0012    XYY      -0.1164
       YYY       0.1361    XXZ       0.2153    XYZ      -0.0133
       YYZ       0.1129    XZZ       0.0070    YZZ      -0.0032
       ZZZ       0.9863
    Hexadecapole Moments (Debye-Ang^3)
      XXXX     -31.1672   XXXY       0.0787   XXYY     -10.2403
      XYYY      -0.0083   YYYY     -30.3864   XXXZ      -0.5398
      XXYZ       0.3320   XYYZ       0.3610   YYYZ      -0.2441
      XXZZ     -10.6975   XYZZ       0.0103   YYZZ     -10.5467
      XZZZ      -0.1072   YZZZ       0.0512   ZZZZ     -35.0855
 -----------------------------------------------------------------
 Eng[-3,-3,0,0] = -3.43122357438668e+02
 points done 6/204
 CoordNormalMode -4 , 0 , 0 , 0
 ----------------------------------------------------------------
             Standard Nuclear Orientation (Angstroms)
    I     Atom           X                Y                Z
 ----------------------------------------------------------------
    1      P      -0.0001187761    -0.0000113753    -0.1299736902
    2      H       0.3661701986    -1.1597168958     0.6570821180
    3      H       0.8232815429     0.8994159525     0.6602698631
    4      H      -1.1852394432     0.2616132596     0.6557644365
 ----------------------------------------------------------------
 Nuclear Repulsion Energy =          17.18568771 hartrees
 There are        9 alpha and        9 beta electrons

                       Distance Matrix (Angstroms)
             P (  1)   H (  2)   H (  3)
   H (  2)  1.448634
   H (  3)  1.453080  2.109263
   H (  4)  1.445802  2.104056  2.107361
 
 Requested basis set is def2-TZVP
 There are 25 shells and 55 basis functions
 A cutoff of  1.0D-10 yielded    325 shell pairs
 There are      1605 function pairs (      1929 Cartesian)
 Smallest overlap matrix eigenvalue = 1.44E-02
 Guess MOs from SCF MO coefficient file

 -----------------------------------------------------------------------
  General SCF calculation program by
  Eric Jon Sundstrom, Paul Horn, Yuezhi Mao, Dmitri Zuev, Alec White,
[...]
 VCI[3] |  2  0  0  0  1  0 >    4402.10 
 VCI[3] |  2  0  0  1  0  0 >    4439.11 
 VCI[3] |  1  0  1  0  1  0 >    4539.03 
 VCI[3] |  1  0  1  0  0  1 >    4552.98 
 VCI[3] |  1  1  0  0  0  1 >    4556.06 
 VCI[3] |  1  1  0  0  1  0 >    4571.16 
 VCI[3] |  1  0  1  1  0  0 >    4598.46 
 VCI[3] |  1  1  0  1  0  0 >    4618.10 
 VCI[3] |  0  0  2  0  1  0 >    4656.65 
 VCI[3] |  0  0  2  0  1  0 >    4678.50 
 VCI[3] |  0  2  0  0  0  1 >    4695.03 
 VCI[3] |  0  1  1  0  0  1 >    4697.48 
 VCI[3] |  0  1  1  0  1  0 >    4701.46 
 VCI[3] |  0  1  1  0  0  1 >    4706.83 
 VCI[3] |  0  2  0  0  1  0 >    4715.63 
 VCI[3] |  0  0  2  1  0  0 >    4730.26 
 VCI[3] |  0  0  0  0  0  2 >    4741.02 
 VCI[3] |  0  0  0  0  2  0 >    4744.81 
 VCI[3] |  0  2  0  0  1  0 >    4762.59 
 VCI[3] |  0  1  1  1  0  0 >    4765.30 
 VCI[3] |  0  0  0  1  0  1 >    4774.98 
 VCI[3] |  0  2  0  1  0  0 >    4794.69 
 VCI[3] |  0  0  0  1  0  1 >    4837.08 
 VCI[3] |  1  0  0  0  2  0 >    5932.26 
 VCI[3] |  1  0  0  0  2  0 >    5945.30 
 VCI[3] |  1  0  0  0  1  1 >    5977.57 
 VCI[3] |  0  0  1  0  2  0 >    6068.75 
 VCI[3] |  0  1  0  0  0  2 >    6080.71 
 VCI[3] |  0  0  1  0  0  2 >    6099.68 
 VCI[3] |  0  1  0  0  2  0 >    6107.58 
 VCI[3] |  1  0  0  1  0  1 >    6111.29 
 VCI[3] |  0  0  1  0  1  1 >    6120.62 
 VCI[3] |  0  1  0  0  1  1 >    6131.26 
 VCI[3] |  1  0  0  1  1  0 >    6164.04 
 VCI[3] |  1  0  0  2  0  0 >    6223.18 
 VCI[3] |  0  0  1  1  1  0 >    6272.67 
 VCI[3] |  0  1  0  1  0  1 >    6286.52 
 VCI[3] |  0  0  1  1  1  0 >    6326.00 
 VCI[3] |  0  1  0  1  1  0 >    6331.77 
 VCI[3] |  0  0  1  2  0  0 >    6387.49 
 VCI[3] |  0  1  0  2  0  0 >    6404.91 
 VCI[3] |  0  0  0  0  3  0 >    7553.47 
 VCI[3] |  0  0  0  0  3  0 >    7575.51 
 VCI[3] |  0  0  0  0  1  2 >    7618.92 
 VCI[3] |  0  0  0  0  2  1 >    7651.02 
 VCI[3] |  0  0  0  3  0  0 >    7884.66 
 VCI[3] |  0  0  0  1  2  0 >    7899.33 
 VCI[3] |  0  0  0  1  1  1 >    7972.76 
 VCI[3] |  0  0  0  2  1  0 >    8181.35 
 VCI[3] |  0  0  0  2  0  1 >    8302.81 
 VCI[3] |  0  0  0  3  0  0 >    8374.31 
 -----------------------------------------------------------
 VCI[3] construnction time:  CPU    0.11 s  wall    0.03 s
 -----------------------------------------------------------
 VCI[4] |  1  0  0  0  0  0 >     979.88 
 VCI[4] |  0  0  1  0  0  0 >    1103.97 
 VCI[4] |  0  1  0  0  0  0 >    1115.30 
 VCI[4] |  2  0  0  0  0  0 >    1953.48 
 VCI[4] |  1  0  1  0  0  0 >    2090.09 
 VCI[4] |  1  1  0  0  0  0 >    2109.89 
 VCI[4] |  0  0  2  0  0  0 >    2216.72 
 VCI[4] |  0  1  1  0  0  0 >    2235.92 
 VCI[4] |  0  2  0  0  0  0 >    2246.85 
 VCI[4] |  0  0  0  1  0  0 >    2310.89 
 VCI[4] |  0  0  0  0  0  1 >    2339.06 
 VCI[4] |  0  0  0  1  0  0 >    2363.95 
 VCI[4] |  3  0  0  0  0  0 >    2911.84 
 VCI[4] |  2  0  1  0  0  0 >    3053.08 
 VCI[4] |  2  1  0  0  0  0 >    3078.01 
 VCI[4] |  1  0  2  0  0  0 >    3188.45 
 VCI[4] |  1  1  1  0  0  0 >    3212.78 
 VCI[4] |  1  2  0  0  0  0 >    3229.89 
 VCI[4] |  1  0  0  0  0  1 >    3300.94 
 VCI[4] |  0  0  3  0  0  0 >    3315.99 
 VCI[4] |  1  0  0  0  0  1 >    3323.02 
 VCI[4] |  0  1  2  0  0  0 >    3339.71 
 VCI[4] |  1  0  0  1  0  0 >    3349.80 
 VCI[4] |  0  2  1  0  0  0 >    3356.39 
 VCI[4] |  0  3  0  0  0  0 >    3366.81 
 VCI[4] |  0  0  1  0  1  0 >    3422.45 
 VCI[4] |  0  1  0  0  0  1 >    3435.19 
 VCI[4] |  0  0  1  0  0  1 >    3449.60 
 VCI[4] |  0  1  0  0  1  0 >    3463.96 
 VCI[4] |  0  0  1  1  0  0 >    3473.79 
 VCI[4] |  0  1  0  1  0  0 >    3488.54 
 VCI[4] |  4  0  0  0  0  0 >    3861.80 
 VCI[4] |  3  0  1  0  0  0 >    4011.82 
 VCI[4] |  3  1  0  0  0  0 >    4042.92 
 VCI[4] |  2  0  2  0  0  0 >    4159.14 
 VCI[4] |  2  1  1  0  0  0 >    4189.82 
 VCI[4] |  2  2  0  0  0  0 >    4212.50 
 VCI[4] |  2  0  0  0  0  1 >    4267.44 
 VCI[4] |  2  0  0  0  1  0 >    4281.81 
 VCI[4] |  1  0  3  0  0  0 >    4300.78 
 VCI[4] |  2  0  0  1  0  0 >    4318.16 
 VCI[4] |  1  1  2  0  0  0 >    4331.16 
 VCI[4] |  1  2  1  0  0  0 >    4353.45 
 VCI[4] |  1  3  0  0  0  0 >    4367.87 
 VCI[4] |  1  0  1  0  1  0 >    4396.86 
 VCI[4] |  1  1  0  0  0  1 >    4412.82 
 VCI[4] |  1  0  1  0  0  1 >    4415.97 
 VCI[4] |  0  0  4  0  0  0 >    4433.02 
 VCI[4] |  1  1  0  0  1  0 >    4437.56 
 VCI[4] |  1  0  1  1  0  0 >    4448.66 
 VCI[4] |  0  1  3  0  0  0 >    4462.89 
 VCI[4] |  1  1  0  1  0  0 >    4470.17 
 VCI[4] |  0  2  2  0  0  0 >    4484.94 
 VCI[4] |  0  3  1  0  0  0 >    4499.80 
 VCI[4] |  0  4  0  0  0  0 >    4507.92 
 VCI[4] |  0  0  2  0  1  0 >    4518.53 
 VCI[4] |  0  1  1  0  0  1 >    4540.64 
 VCI[4] |  0  2  0  0  0  1 >    4547.23 
 VCI[4] |  0  0  2  0  0  1 >    4549.16 
 VCI[4] |  0  1  1  0  1  0 >    4561.57 
 VCI[4] |  0  0  2  1  0  0 >    4576.79 
 VCI[4] |  0  2  0  0  1  0 >    4581.52 
 VCI[4] |  0  1  1  1  0  0 >    4596.15 
 VCI[4] |  0  2  0  1  0  0 >    4611.31 
 VCI[4] |  0  2  0  1  0  0 >    4615.89 
 VCI[4] |  0  0  0  0  0  2 >    4698.47 
 VCI[4] |  0  0  0  0  2  0 >    4709.57 
 VCI[4] |  0  0  0  1  1  0 >    4722.64 
 VCI[4] |  0  0  0  2  0  0 >    4728.12 
 VCI[4] |  0  0  0  0  1  1 >    4800.24 
 VCI[4] |  3  0  0  1  0  0 >    5289.84 
 VCI[4] |  3  0  0  0  0  1 >    5305.90 
 VCI[4] |  3  0  0  1  0  0 >    5333.57 
 VCI[4] |  2  0  1  0  1  0 >    5447.97 
 VCI[4] |  2  0  1  0  0  1 >    5464.56 
 VCI[4] |  2  1  0  0  0  1 >    5472.93 
 VCI[4] |  2  1  0  0  1  0 >    5488.49 
 VCI[4] |  2  0  1  1  0  0 >    5498.74 
 VCI[4] |  2  1  0  1  0  0 >    5526.20 
 VCI[4] |  1  0  2  0  1  0 >    5587.53 
 VCI[4] |  1  0  2  0  0  1 >    5611.44 
 VCI[4] |  1  0  2  0  0  1 >    5623.49 
 VCI[4] |  1  1  1  0  0  1 >    5628.30 
 VCI[4] |  1  1  1  0  1  0 >    5634.50 
 VCI[4] |  1  1  1  0  0  1 >    5638.00 
 VCI[4] |  1  2  0  0  1  0 >    5652.22 
 VCI[4] |  1  0  2  1  0  0 >    5657.33 
 VCI[4] |  1  0  0  0  2  0 >    5678.78 
 VCI[4] |  1  0  0  0  0  2 >    5680.97 
 VCI[4] |  1  1  1  1  0  0 >    5685.36 
 VCI[4] |  1  2  0  1  0  0 >    5699.49 
 VCI[4] |  0  0  3  0  1  0 >    5708.02 
 VCI[4] |  1  0  0  1  0  1 >    5717.32 
 VCI[4] |  1  0  0  2  0  0 >    5733.95 
 VCI[4] |  0  1  0  0  1  1 >    5734.06 
 VCI[4] |  0  0  3  0  1  0 >    5742.10 
 VCI[4] |  0  3  0  0  0  1 >    5761.06 
 VCI[4] |  0  0  3  1  0  0 >    5762.54 
 VCI[4] |  0  1  2  0  1  0 >    5771.23 
 VCI[4] |  0  2  1  0  0  1 >    5774.79 
 VCI[4] |  0  2  1  0  1  0 >    5780.07 
 VCI[4] |  1  0  0  1  0  1 >    5782.22 
 VCI[4] |  0  1  2  0  0  1 >    5782.49 
 VCI[4] |  0  3  0  0  1  0 >    5793.25 
 VCI[4] |  0  2  1  0  0  1 >    5794.75 
 VCI[4] |  0  2  1  0  1  0 >    5804.06 
 VCI[4] |  0  1  0  2  0  0 >    5812.77 
 VCI[4] |  0  0  1  0  0  2 >    5818.23 
 VCI[4] |  0  1  0  0  0  2 >    5821.20 
 VCI[4] |  0  1  0  0  2  0 >    5829.88 
 VCI[4] |  0  2  1  0  1  0 >    5837.90 
 VCI[4] |  0  1  2  1  0  0 >    5853.87 
 VCI[4] |  0  2  1  1  0  0 >    5856.99 
 VCI[4] |  0  1  0  1  0  1 >    5862.71 
 VCI[4] |  0  2  1  1  0  0 >    5871.95 
 VCI[4] |  0  3  0  1  0  0 >    5893.83 
 VCI[4] |  0  0  1  1  0  1 >    5911.87 
 VCI[4] |  0  3  0  1  0  0 >    5929.42 
 VCI[4] |  2  0  0  0  0  2 >    6815.93 
 VCI[4] |  2  0  0  0  2  0 >    6824.00 
 VCI[4] |  2  0  0  0  1  1 >    6862.22 
 VCI[4] |  2  0  0  1  1  0 >    6947.56 
 VCI[4] |  1  0  1  0  2  0 >    6967.54 
 VCI[4] |  1  1  0  0  0  2 >    6986.10 
 VCI[4] |  1  0  1  0  0  2 >    6995.84 
 VCI[4] |  2  0  0  1  0  1 >    7008.70 
 VCI[4] |  1  1  0  0  2  0 >    7012.68 
 VCI[4] |  1  0  1  0  1  1 >    7020.69 
 VCI[4] |  1  1  0  0  1  1 >    7038.25 
 VCI[4] |  0  0  0  0  1  2 >    7046.82 
 VCI[4] |  2  0  0  2  0  0 >    7058.66 
 VCI[4] |  0  0  2  0  2  0 >    7079.24 
 VCI[4] |  0  0  0  0  3  0 >    7099.54 
 VCI[4] |  0  2  0  0  0  2 >    7109.11 
 VCI[4] |  0  0  0  0  3  0 >    7117.05 
 VCI[4] |  0  1  1  0  0  2 >    7136.34 
 VCI[4] |  0  1  1  0  2  0 >    7139.59 
 VCI[4] |  1  0  1  1  1  0 >    7146.17 
 VCI[4] |  0  0  2  0  0  2 >    7151.56 
 VCI[4] |  0  1  1  0  0  2 >    7155.70 
 VCI[4] |  0  0  2  0  1  1 >    7159.04 
 VCI[4] |  0  0  2  0  1  1 >    7162.49 
 VCI[4] |  1  1  0  1  0  1 >    7167.94 
 VCI[4] |  0  0  2  0  1  1 >    7173.03 
 VCI[4] |  0  1  1  0  1  1 >    7182.99 
 VCI[4] |  0  2  0  0  1  1 >    7194.64 
 VCI[4] |  1  0  1  1  1  0 >    7203.79 
 VCI[4] |  0  0  0  2  1  0 >    7205.16 
 VCI[4] |  0  0  0  1  0  2 >    7211.55 
 VCI[4] |  1  1  0  1  1  0 >    7214.64 
 VCI[4] |  0  0  0  1  2  0 >    7218.94 
 VCI[4] |  0  0  0  3  0  0 >    7232.08 
 VCI[4] |  1  0  1  2  0  0 >    7257.69 
 VCI[4] |  1  1  0  2  0  0 >    7283.86 
 VCI[4] |  0  0  2  1  1  0 >    7312.87 
 VCI[4] |  0  0  0  1  1  1 >    7327.14 
 VCI[4] |  0  1  1  1  0  1 >    7331.63 
 VCI[4] |  0  2  0  1  0  1 >    7355.19 
 VCI[4] |  0  0  2  1  0  1 >    7374.52 
 VCI[4] |  0  1  1  1  1  0 >    7380.91 
 VCI[4] |  0  2  0  1  1  0 >    7396.25 
 VCI[4] |  0  0  2  2  0  0 >    7435.49 
 VCI[4] |  0  1  1  2  0  0 >    7444.93 
 VCI[4] |  0  2  0  2  0  0 >    7476.63 
 VCI[4] |  1  0  0  0  3  0 >    8428.50 
 VCI[4] |  1  0  0  0  3  0 >    8451.01 
 VCI[4] |  1  0  0  0  1  2 >    8494.50 
 VCI[4] |  1  0  0  0  2  1 >    8525.81 
 VCI[4] |  0  0  1  0  3  0 >    8569.43 
 VCI[4] |  0  1  0  0  0  3 >    8583.91 
 VCI[4] |  0  0  1  0  0  3 >    8607.07 
 VCI[4] |  0  1  0  0  3  0 >    8615.86 
 VCI[4] |  0  0  1  0  1  2 >    8650.33 
 VCI[4] |  0  1  0  0  1  2 >    8653.12 
 VCI[4] |  0  0  1  0  1  2 >    8676.07 
 VCI[4] |  0  1  0  0  2  1 >    8691.92 
 VCI[4] |  1  0  0  3  0  0 >    8723.15 
 VCI[4] |  1  0  0  1  2  0 >    8741.80 
 VCI[4] |  1  0  0  1  1  1 >    8819.24 
 VCI[4] |  0  0  1  3  0  0 >    8901.50 
 VCI[4] |  0  1  0  1  0  2 >    8906.25 
 VCI[4] |  0  0  1  1  0  2 >    8914.85 
 VCI[4] |  0  1  0  1  2  0 >    8939.19 
 VCI[4] |  0  0  1  1  1  1 >    8991.98 
 VCI[4] |  0  1  0  1  1  1 >    9001.61 
 VCI[4] |  1  0  0  2  1  0 >    9005.05 
 VCI[4] |  1  0  0  1  0  2 >    9129.50 
 VCI[4] |  0  0  1  2  1  0 >    9187.51 
 VCI[4] |  1  0  0  1  2  0 >    9197.86 
 VCI[4] |  0  1  0  2  1  0 >    9207.02 
 VCI[4] |  0  1  0  1  0  2 >    9307.73 
 VCI[4] |  0  0  1  2  1  0 >    9322.45 
 VCI[4] |  0  0  1  3  0  0 >    9376.27 
 VCI[4] |  0  1  0  1  2  0 >    9410.23 
 VCI[4] |  0  0  0  0  4  0 >   10126.04 
 VCI[4] |  0  0  0  0  3  1 >   10139.29 
 VCI[4] |  0  0  0  0  4  0 >   10189.10 
 VCI[4] |  0  0  0  0  1  3 >   10237.66 
 VCI[4] |  0  0  0  0  2  2 >   10305.78 
 VCI[4] |  0  0  0  2  0  2 >   10579.64 
 VCI[4] |  0  0  0  1  0  3 >   10684.61 
 VCI[4] |  0  0  0  1  3  0 >   10717.62 
 VCI[4] |  0  0  0  1  2  1 >   10776.16 
 VCI[4] |  0  0  0  4  0  0 >   10992.87 
 VCI[4] |  0  0  0  2  2  0 >   11022.35 
 VCI[4] |  0  0  0  2  1  1 >   11157.51 
 VCI[4] |  0  0  0  3  1  0 >   11432.72 
 VCI[4] |  0  0  0  1  0  3 >   11658.53 
 VCI[4] |  0  0  0  2  2  0 >   11747.98 
 -----------------------------------------------------------
 VCI[4] construnction time:  CPU    0.61 s  wall    0.16 s
 -----------------------------------------------------------
 VCI time:                    CPU    0.74 s  wall    0.19 s
 ----------------------------------------------------------------
             Standard Nuclear Orientation (Angstroms)
    I     Atom           X                Y                Z
 ----------------------------------------------------------------
    1      P       0.0000357168     0.0000611906    -0.1284793227
    2      H       0.3584190298    -1.1351385628     0.6420883886
    3      H       0.8033523487     0.8776535610     0.6428451773
    4      H      -1.1623071307     0.2565671432     0.6422562742
 ----------------------------------------------------------------
 Nuclear Repulsion Energy =          17.56344656 hartrees
 There are        9 alpha and        9 beta electrons

 = Finishing finite difference calculation for ANHAR =
 =====================================================
 =====================================================
 Requested basis set is def2-TZVP
 There are 25 shells and 55 basis functions
 **********************************************************************
 **                                                                  **
 **                       VIBRATIONAL ANALYSIS                       **
 **                       --------------------                       **
 **                                                                  **
 **        VIBRATIONAL FREQUENCIES (CM**-1) AND NORMAL MODES         **
 **     FORCE CONSTANTS (mDYN/ANGSTROM) AND REDUCED MASSES (AMU)     **
 **                  INFRARED INTENSITIES (KM/MOL)                   **
 **                                                                  **
 **********************************************************************
 

 Mode:                 1                      2                      3
 Frequency:      1034.93                1139.86                1143.70
 Force Cnst:      0.6785                 0.7849                 0.7902
 Red. Mass:       1.0752                 1.0253                 1.0253
 IR Active:          YES                    YES                    YES
 IR Intens:       17.724                  8.671                  8.707
 Raman Active:       YES                    YES                    YES
               X      Y      Z        X      Y      Z        X      Y      Z
 P          0.000 -0.000 -0.047   -0.011 -0.022 -0.000    0.022 -0.011  0.001
 H         -0.101  0.292  0.482    0.521 -0.004 -0.231   -0.447 -0.308 -0.228
 H         -0.216 -0.222  0.484   -0.293 -0.022  0.308   -0.462  0.514 -0.097
 H          0.307 -0.066  0.490    0.100  0.692 -0.075    0.243  0.120  0.305
 TransDip   0.001 -0.001 -0.135   -0.042 -0.084 -0.000    0.085 -0.042  0.002

 Mode:                 4                      5                      6
 Frequency:      2408.08                2415.52                2416.59
 Force Cnst:      3.5261                 3.5779                 3.5814
 Red. Mass:       1.0320                 1.0408                 1.0409
 IR Active:          YES                    YES                    YES
 IR Intens:       32.069                 59.388                 59.643
 Raman Active:       YES                    YES                    YES
               X      Y      Z        X      Y      Z        X      Y      Z
 P          0.003  0.001  0.028   -0.015 -0.029  0.002   -0.029  0.016  0.002
 H         -0.146  0.465 -0.283   -0.161  0.494 -0.331    0.135 -0.442  0.298
 H         -0.377 -0.411 -0.329    0.422  0.459  0.402    0.090  0.107  0.092
 H          0.433 -0.095 -0.255    0.215 -0.054 -0.140    0.673 -0.147 -0.440
 TransDip   0.023  0.011  0.180   -0.115 -0.218  0.014   -0.218  0.117  0.010

 ======================================================================
                     VIBRATIONAL ANHARMONIC ANALYSIS                   
                     -------------------------------                   
 WARNING! Low frequency modes less than  300 are treated as rotation
 No anharmonic shift applied, please see IGNORE_LOW_FREQ for more details.
 WARNING! THESE RESULTS ARE CALCULATED WTIHOUT Eta_ijk AND Eta_ijkl
                                                                       
 TOSH[ 1]   984.62    VPT2[ 1]   984.34
 TOSH[ 2]  1116.08    VPT2[ 2]  1115.98
 TOSH[ 3]  1106.12    VPT2[ 3]  1106.05
 TOSH[ 4]  2361.90    VPT2[ 4]  2327.72
 TOSH[ 5]  2326.37    VPT2[ 5]  2318.98
 TOSH[ 6]  2323.20    VPT2[ 6]  2319.97

 VCI[ 1]mode[ 1]=  1.00 quanta * 1024.58
 VCI[ 1]mode[ 2]=  0.99 quanta * 1164.39
 VCI[ 1]mode[ 3]=  0.99 quanta * 1154.67
 VCI[ 1]mode[ 4]=  0.94 quanta * 2590.51
 VCI[ 1]mode[ 5]=  0.81 quanta * 2529.11
 VCI[ 1]mode[ 6]=  0.77 quanta * 2523.13

 VCI[ 2]mode[ 1]=  0.99 quanta *  985.95
 VCI[ 2]mode[ 2]=  0.98 quanta * 1117.87
 VCI[ 2]mode[ 3]=  0.98 quanta * 1107.60
 VCI[ 2]mode[ 4]=  0.74 quanta * 2384.74
 VCI[ 2]mode[ 5]=  0.66 quanta * 2359.73
 VCI[ 2]mode[ 6]=  0.69 quanta * 2359.73

 VCI[ 3]mode[ 1]=  0.99 quanta *  995.71
 VCI[ 3]mode[ 2]=  0.98 quanta * 1130.25
 VCI[ 3]mode[ 3]=  0.98 quanta * 1118.96
 VCI[ 3]mode[ 4]=  0.74 quanta * 2387.39
 VCI[ 3]mode[ 5]=  0.64 quanta * 2363.95
 VCI[ 3]mode[ 6]=  0.71 quanta * 2363.95

 VCI[ 4]mode[ 1]=  0.99 quanta *  979.88
 VCI[ 4]mode[ 2]=  0.98 quanta * 1115.30
 VCI[ 4]mode[ 3]=  0.98 quanta * 1103.97
 VCI[ 4]mode[ 4]=  0.74 quanta * 2363.95
 VCI[ 4]mode[ 5]=  0.64 quanta * 2339.06
 VCI[ 4]mode[ 6]=  0.71 quanta * 2339.06

 ======================================================================

 STANDARD THERMODYNAMIC QUANTITIES AT   298.15 K  AND     1.00 ATM

   This Molecule has  0 Imaginary Frequencies
   Zero point vibrational energy:       15.094 kcal/mol

   Atom    1 Element P  Has Mass   30.97376
   Atom    2 Element H  Has Mass    1.00783
   Atom    3 Element H  Has Mass    1.00783
   Atom    4 Element H  Has Mass    1.00783
   Molecular Mass:    33.997250 amu
   Principal axes and moments of inertia in amu*Bohr^2:
                             1           2           3
    Eigenvalues --       13.49219    13.49275    15.29384
          X               1.00000    -0.00015     0.00008
          Y               0.00015     1.00000     0.00013
          Z              -0.00008    -0.00013     1.00000
   Rotational Symmetry Number is   1
   The Molecule is an Asymmetric Top
   Translational Enthalpy:        0.889 kcal/mol
   Rotational Enthalpy:           0.889 kcal/mol
   Vibrational Enthalpy:         15.141 kcal/mol
   gas constant (RT):             0.592 kcal/mol
   Translational Entropy:        36.502  cal/mol.K
   Rotational Entropy:           15.684  cal/mol.K
   Vibrational Entropy:           0.187  cal/mol.K

   Total Enthalpy:               17.511 kcal/mol
   Total Entropy:                52.373  cal/mol.K

 ======================================================================

 STANDARD THERMODYNAMIC QUANTITIES FOR ANHARMONIC VIBRATION -- TOSH

   Zero point vibrational energy:       14.608 kcal/mol

   Vibrational Enthalpy:         14.663 kcal/mol
   Vibrational Entropy:           0.220  cal/mol.K

   Total Enthalpy:               17.032 kcal/mol
   Total Entropy:                52.405  cal/mol.K

 ======================================================================

 STANDARD THERMODYNAMIC QUANTITIES FOR ANHARMONIC VIBRATION -- VPT2

   Zero point vibrational energy:       14.543 kcal/mol

   Vibrational Enthalpy:         14.598 kcal/mol
   Vibrational Entropy:           0.220  cal/mol.K

   Total Enthalpy:               16.968 kcal/mol
   Total Entropy:                52.405  cal/mol.K

 ======================================================================

 STANDARD THERMODYNAMIC QUANTITIES FOR ANHARMONIC VIBRATION -- VCI 4

   Zero point vibrational energy:       14.641 kcal/mol

   Vibrational Enthalpy:         14.696 kcal/mol
   Vibrational Entropy:           0.222  cal/mol.K

   Total Enthalpy:               17.066 kcal/mol
   Total Entropy:                52.408  cal/mol.K

 ======================================================================
 
Archival summary:
1\1\gadi-cpu-clx-0263.gadi.nci.org.au\FREQ\ProcedureUnspecified\BasisUnspecified\13\pk8622\TueJun2313:57:312020TueJun2313:57:312020\0\\#,FREQ,ProcedureUnspecified,BasisUnspecified,\\0,1\P\H,1,1.4179\H,1,1.41805,2,93.2541\H,1,1.41806,2,93.25,3,-93.4413,0\\\@

 Total job time:  311.73s(wall), 1220.48s(cpu) 
 Tue Jun 23 13:57:31 2020

        *************************************************************
        *                                                           *
        *  Thank you very much for using Q-Chem.  Have a nice day.  *
        *                                                           *
        *************************************************************


