                  Welcome to Q-Chem
     A Quantum Leap Into The Future Of Chemistry


 Q-Chem 5.2 (devel), Q-Chem, Inc., Pleasanton, CA (2019)

 Yihan Shao,  Zhengting Gan,  E. Epifanovsky,  A. T. B. Gilbert,  M. Wormit,  
 J. Kussmann,  A. W. Lange,  A. Behn,  Jia Deng,  Xintian Feng,  D. Ghosh,  
 M. Goldey,  P. R. Horn,  L. D. Jacobson,  I. Kaliman,  T. Kus,  A. Landau,  
 Jie Liu,  E. I. Proynov,  R. M. Richard,  R. P. Steele,  E. J. Sundstrom,  
 H. L. Woodcock III,  P. M. Zimmerman,  D. Zuev,  B. Albrecht,  E. Alguire,  
 S. A. Baeppler,  D. Barton,  Z. Benda,  Y. A. Bernard,  E. J. Berquist,  
 K. B. Bravaya,  H. Burton,  D. Casanova,  Chun-Min Chang,  Yunqing Chen,  
 A. Chien,  K. D. Closser,  M. P. Coons,  S. Coriani,  S. Dasgupta,  
 A. L. Dempwolff,  M. Diedenhofen,  Hainam Do,  R. G. Edgar,  Po-Tung Fang,  
 S. Faraji,  S. Fatehi,  Qingguo Feng,  K. D. Fenk,  J. Fosso-Tande,  
 J. Gayvert,  Qinghui Ge,  A. Ghysels,  G. Gidofalvi,  J. Gomes,  
 J. Gonthier,  A. Gunina,  D. Hait,  M. W. D. Hanson-Heine,  
 P. H. P. Harbach,  A. W. Hauser,  M. F. Herbst,  J. E. Herr,  
 E. G. Hohenstein,  Z. C. Holden,  Kerwin Hui,  B. C. Huynh,  T.-C. Jagau,  
 Hyunjun Ji,  B. Kaduk,  K. Khistyaev,  Jaehoon Kim,  P. Klunzinger,  K. Koh,  
 D. Kosenkov,  L. Koulias,  T. Kowalczyk,  C. M. Krauter,  A. Kunitsa,  
 Ka Un Lao,  A. Laurent,  K. V. Lawler,  Joonho Lee,  D. Lefrancois,  
 S. Lehtola,  D. S. Levine,  Yi-Pei Li,  You-Sheng Lin,  Fenglai Liu,  
 E. Livshits,  A. Luenser,  P. Manohar,  E. Mansoor,  S. F. Manzer,  
 Shan-Ping Mao,  Yuezhi Mao,  N. Mardirossian,  A. V. Marenich,  
 T. Markovich,  L. A. Martinez-Martinez,  S. A. Maurer,  N. J. Mayhall,  
 S. C. McKenzie,  J.-M. Mewes,  P. Morgante,  A. F. Morrison,  
 J. W. Mullinax,  K. Nanda,  T. S. Nguyen-Beck,  R. Olivares-Amaya,  
 J. A. Parkhill,  Zheng Pei,  T. M. Perrine,  F. Plasser,  P. Pokhilko,  
 S. Prager,  A. Prociuk,  E. Ramos,  D. R. Rehn,  F. Rob,  M. Scheurer,  
 M. Schneider,  N. Sergueev,  S. M. Sharada,  S. Sharma,  D. W. Small,  
 T. Stauch,  T. Stein,  Yu-Chuan Su,  A. J. W. Thom,  A. Tkatchenko,  
 T. Tsuchimochi,  N. M. Tubman,  L. Vogt,  M. L. Vidal,  O. Vydrov,  
 M. A. Watson,  J. Wenzel,  M. de Wergifosse,  T. A. Wesolowski,  A. White,  
 J. Witte,  A. Yamada,  Jun Yang,  K. Yao,  S. Yeganeh,  S. R. Yost,  
 Zhi-Qiang You,  A. Zech,  Igor Ying Zhang,  Xing Zhang,  Yan Zhao,  
 Ying Zhu,  B. R. Brooks,  G. K. L. Chan,  C. J. Cramer,  M. S. Gordon,  
 W. J. Hehre,  A. Klamt,  M. W. Schmidt,  C. D. Sherrill,  D. G. Truhlar,  
 A. Aspuru-Guzik,  R. Baer,  A. T. Bell,  N. A. Besley,  Jeng-Da Chai,  
 A. E. DePrince, III,  R. A. DiStasio Jr.,  A. Dreuw,  B. D. Dunietz,  
 T. R. Furlani,  Chao-Ping Hsu,  Yousung Jung,  Jing Kong,  D. S. Lambrecht,  
 WanZhen Liang,  C. Ochsenfeld,  V. A. Rassolov,  L. V. Slipchenko,  
 J. E. Subotnik,  T. Van Voorhis,  J. M. Herbert,  A. I. Krylov,  
 P. M. W. Gill,  M. Head-Gordon

 Contributors to earlier versions of Q-Chem not listed above: 
 R. D. Adamson,  B. Austin,  J. Baker,  G. J. O. Beran,  K. Brandhorst,  
 S. T. Brown,  E. F. C. Byrd,  A. K. Chakraborty,  C.-L. Cheng,  
 Siu Hung Chien,  D. M. Chipman,  D. L. Crittenden,  H. Dachsel,  
 R. J. Doerksen,  A. D. Dutoi,  L. Fusti-Molnar,  W. A. Goddard III,  
 A. Golubeva-Zadorozhnaya,  S. R. Gwaltney,  G. Hawkins,  A. Heyden,  
 S. Hirata,  G. Kedziora,  F. J. Keil,  C. Kelley,  Jihan Kim,  R. A. King,  
 R. Z. Khaliullin,  P. P. Korambath,  W. Kurlancheek,  A. M. Lee,  M. S. Lee,  
 S. V. Levchenko,  Ching Yeh Lin,  D. Liotard,  R. C. Lochan,  I. Lotan,  
 P. E. Maslen,  N. Nair,  D. P. O'Neill,  D. Neuhauser,  E. Neuscamman,  
 C. M. Oana,  R. Olson,  B. Peters,  R. Peverati,  P. A. Pieniazek,  
 Y. M. Rhee,  J. Ritchie,  M. A. Rohrdanz,  E. Rosta,  N. J. Russ,  
 H. F. Schaefer III,  N. E. Schultz,  N. Shenvi,  A. C. Simmonett,  A. Sodt,  
 D. Stuck,  K. S. Thanthiriwatte,  V. Vanovschi,  Tao Wang,  A. Warshel,  
 C. F. Williams,  Q. Wu,  X. Xu,  W. Zhang

 Please cite Q-Chem as follows:
 Y. Shao et al., Mol. Phys. 113, 184-215 (2015)
 DOI: 10.1080/00268976.2014.952696

 Q-Chem 5.2.0 for Intel X86 EM64T Linux

 Parts of Q-Chem use Armadillo 8.300.2 (Tropical Shenanigans).
 http://arma.sourceforge.net/

 Q-Chem begins on Wed Jun 24 07:26:42 2020  

Host: gadi-cpu-clx-0263.gadi.nci.org.au
0

     Scratch files written to /jobfs/7626483.gadi-pbs/qchem67151//
NAlpha2: 42
NElect   42
Mult     1

Checking the input file for inconsistencies... 	...done.

--------------------------------------------------------------
User input:
--------------------------------------------------------------
$comment
	QCHEM - phosphorous trifluoride
	Geometry optimization
	Anharmonic frequency analysis
$end

$molecule
0 1
P         -0.53161        2.14075       -0.22716
F          1.00710        1.97419        0.06484
F         -0.88604        2.64957        1.22063
F         -0.88604        0.63556        0.07185

$end

$rem
	JOBTYPE	OPT
	METHOD	M06
	BASIS	def2-TZVP
	SCF_CONVERGENCE	7
$end

--------------------------------------------------------------
 ----------------------------------------------------------------
             Standard Nuclear Orientation (Angstroms)
    I     Atom           X                Y                Z
 ----------------------------------------------------------------
    1      P      -0.0000013756    -0.0000023929     0.5334708445
    2      F       1.3281809443    -0.1671171663    -0.2963719571
    3      F      -0.8088187689    -1.0666725863    -0.2963745772
    4      F      -0.5193598827     1.2337937407    -0.2963715399
 ----------------------------------------------------------------
 Molecular Point Group                 C1    NOp =  1
 Largest Abelian Subgroup              C1    NOp =  1
 Nuclear Repulsion Energy =         191.53413072 hartrees
 There are       21 alpha and       21 beta electrons
 Requested basis set is def2-TZVP
 There are 46 shells and 130 basis functions

 Total QAlloc Memory Limit   2000 MB
 Mega-Array Size       188 MB
 MEM_STATIC part       192 MB
 A cutoff of  1.0D-10 yielded   1000 shell pairs
 There are      8412 function pairs (     11277 Cartesian)
 Smallest overlap matrix eigenvalue = 4.38E-03

 Scale SEOQF with 1.000000e+00/1.000000e+00/1.000000e+00

 Standard Electronic Orientation quadrupole field applied
 Nucleus-field energy     =     0.0000000188 hartrees
 Guess from superposition of atomic densities
 Warning:  Energy on first SCF cycle will be non-variational
 SAD guess density has 42.000000 electrons

 -----------------------------------------------------------------------
  General SCF calculation program by
  Eric Jon Sundstrom, Paul Horn, Yuezhi Mao, Dmitri Zuev, Alec White,
  David Stuck, Shaama M.S., Shane Yost, Joonho Lee, David Small,
  Daniel Levine, Susi Lehtola, Hugh Burton, Evgeny Epifanovsky
 -----------------------------------------------------------------------
 Exchange:     0.2700 Hartree-Fock + 1.0000 M06
 Correlation:  1.0000 M06
 Using SG-3 standard quadrature grid
 using 4 threads for integral computing
 -------------------------------------------------------
 OpenMP Integral computing Module                
 Release: version 2.0, May 2017, Q-Chem Inc. Pleasanton 
 -------------------------------------------------------
 A restricted SCF calculation will be
 performed using DIIS
 SCF converges when DIIS error is below 1.0e-07
 ---------------------------------------
  Cycle       Energy         DIIS error
 ---------------------------------------
    1    -641.3880127233      4.23e-02  
    2    -640.9160505587      8.48e-03  
    3    -640.8166002819      1.25e-02  
    4    -641.0084660150      3.51e-04  
    5    -641.0086377586      1.25e-04  
    6    -641.0086571445      1.50e-05  
    7    -641.0086574979      4.23e-06  
    8    -641.0086575123      2.04e-06  
    9    -641.0086575155      5.88e-07  
   10    -641.0086575134      4.28e-08  Convergence criterion met
 ---------------------------------------
 SCF time:   CPU 25.95s  wall 7.00s 
 SCF   energy in the final basis set =     -641.0086575134
 Total energy in the final basis set =     -641.0086575134
 
 --------------------------------------------------------------
 
                    Orbital Energies (a.u.)
 --------------------------------------------------------------
 
 Alpha MOs
 -- Occupied --
-77.3808 -24.8067 -24.8066 -24.8066  -6.7900  -4.9119  -4.9118  -4.9041
 -1.3180  -1.2641  -1.2640  -0.6962  -0.5816  -0.5815  -0.5484  -0.5095
 -0.5095  -0.4656  -0.4656  -0.4527  -0.3477
 -- Virtual --
 -0.0137  -0.0131   0.1115   0.2183   0.2194   0.2300   0.2675   0.3594
  0.3597   0.3669   0.4370   0.4372   0.5424   0.5457   0.5460   0.6087
  0.6443   0.6447   0.6656   0.7315   0.7317   0.8667   0.8671   0.9171
  1.1175   1.1178   1.1519   1.1820   1.1822   1.2594   1.2887   1.3632
  1.3638   1.4572   1.4762   1.4767   1.6754   1.8810   1.8816   1.9659
  1.9661   2.0316   2.1512   2.1517   2.2057   2.4455   2.4457   2.4500
  2.4762   2.5809   2.5810   2.6225   2.6724   2.6726   3.2672   3.3117
  3.3120   3.3559   3.4266   3.4267   3.6530   3.7689   3.7691   4.0587
  4.0767   4.0768   6.6623   6.6624   6.6935   6.8237   6.8358   6.8359
  6.8533   6.8534   6.8595   6.8604   6.8605   6.8626   6.8627   6.8646
  6.9448   6.9599   6.9641   6.9722   6.9723   7.0095   7.0096   7.6560
  7.8756   7.8757   8.3133   8.3134   8.3672   8.3992   8.4090   8.4091
  8.5602   8.5673   8.5674   8.7404   8.7864   8.8154   8.8155   8.9399
  8.9400  15.0418  56.7040  56.7041  56.8647
 --------------------------------------------------------------
 
          Ground-State Mulliken Net Atomic Charges

     Atom                 Charge (a.u.)
  ----------------------------------------
      1 P                     0.771099
      2 F                    -0.256718
      3 F                    -0.257606
      4 F                    -0.256774
  ----------------------------------------
  Sum of atomic charges =     0.000000

 -----------------------------------------------------------------
                    Cartesian Multipole Moments
 -----------------------------------------------------------------
    Charge (ESU x 10^10)
                -0.0000
    Dipole Moment (Debye)
         X      -0.0004      Y      -0.0022      Z       1.4345
       Tot       1.4345
    Quadrupole Moments (Debye-Ang)
        XX     -27.5731     XY       0.0010     YY     -27.5702
        XZ       0.0002     YZ      -0.0059     ZZ     -26.4625
    Octopole Moments (Debye-Ang^2)
       XXX      -2.1028    XXY       0.8259    XYY       2.1008
       YYY      -0.8266    XXZ      -0.6883    XYZ       0.0015
       YYZ      -0.6874    XZZ      -0.0007    YZZ      -0.0048
       ZZZ      -8.2567
    Hexadecapole Moments (Debye-Ang^3)
      XXXX    -102.5213   XXXY       0.0010   XXYY     -34.1727
      XYYY      -0.0005   YYYY    -102.5126   XXXZ       0.0021
      XXYZ      -0.0034   XYYZ      -0.0020   YYYZ      -0.0098
      XXZZ     -24.7708   XYZZ       0.0020   YYZZ     -24.7656
      XZZZ      -0.0020   YZZZ      -0.0148   ZZZZ     -56.3979
 -----------------------------------------------------------------
 Calculating analytic gradient of the SCF energy
 Gradient of SCF Energy
            1           2           3           4
    1   0.0002987  -0.0018247   0.0009823   0.0005437
    2  -0.0006069   0.0002498   0.0019080  -0.0015508
    3   0.0288704  -0.0095650  -0.0098081  -0.0094972
 Max gradient component =       2.887E-02
 RMS gradient           =       9.672E-03
 Gradient time:  CPU 7.78 s  wall 2.25 s
 Geometry Optimization Parameters
   NAtoms,    NIC,     NZ,  NCons,   NDum,   NFix, NCnnct, MaxDiis
        4      17       0       0       0       0       0       0


** GEOMETRY OPTIMIZATION IN DELOCALIZED INTERNAL COORDINATES **
   Searching for a Minimum

   Optimization Cycle:   1

                       Coordinates (Angstroms)
     ATOM                X               Y               Z
      1  P        -0.0000013756   -0.0000023929    0.5334708445
      2  F         1.3281809443   -0.1671171663   -0.2963719571
      3  F        -0.8088187689   -1.0666725863   -0.2963745772
      4  F        -0.5193598827    1.2337937407   -0.2963715399
   Point Group: c1    Number of degrees of freedom:     6


   Energy is   -641.008657513


 Attempting to generate delocalized internal coordinates
 Initial Hessian constructed with Jon Baker's OPTIMIZE code

  6 Hessian modes will be used to form the next step
  Hessian Eigenvalues:
     0.250000    0.250000    0.250000    0.563722    0.563729    0.563736

 Minimum search - taking simple RFO step
 Searching for Lamda that Minimizes Along All modes
 Value Taken    Lamda =  -0.00488201
 Step Taken.  Stepsize is  0.137894

                             Maximum     Tolerance    Cnvgd?
         Gradient           0.029921      0.000300      NO
         Displacement       0.122480      0.001200      NO
         Energy change     *********      0.000001      NO


 New Cartesian Coordinates Obtained by Inverse Iteration

 Displacement from previous Coordinates is:  0.201469
 ----------------------------------------------------------------
             Standard Nuclear Orientation (Angstroms)
    I     Atom           X                Y                Z
 ----------------------------------------------------------------
    1      P      -0.0008693419     0.0003934827     0.4703968315
    2      F       1.3716623985    -0.1728379947    -0.2757262292
    3      F      -0.8349995258    -1.1038077165    -0.2752630509
    4      F      -0.5357926137     1.2762538237    -0.2750547811
 ----------------------------------------------------------------
 Molecular Point Group                 C1    NOp =  1
 Largest Abelian Subgroup              C1    NOp =  1
 Nuclear Repulsion Energy =         190.01415671 hartrees
 There are       21 alpha and       21 beta electrons
 Applying Cartesian multipole field
    Component          Value
    ---------          -----
     (2,0,0)        1.00000E-10
     (0,2,0)        2.00000E-10
     (0,0,2)       -3.00000E-10
 Nucleus-field energy     =     0.0000000220 hartrees
 Requested basis set is def2-TZVP
 There are 46 shells and 130 basis functions
 A cutoff of  1.0D-10 yielded   1000 shell pairs
 There are      8412 function pairs (     11277 Cartesian)
 Smallest overlap matrix eigenvalue = 4.60E-03
 Guess MOs from SCF MO coefficient file

 -----------------------------------------------------------------------
  General SCF calculation program by
  Eric Jon Sundstrom, Paul Horn, Yuezhi Mao, Dmitri Zuev, Alec White,
  David Stuck, Shaama M.S., Shane Yost, Joonho Lee, David Small,
  Daniel Levine, Susi Lehtola, Hugh Burton, Evgeny Epifanovsky
 -----------------------------------------------------------------------
 Exchange:     0.2700 Hartree-Fock + 1.0000 M06
 Correlation:  1.0000 M06
 Using SG-3 standard quadrature grid
 using 4 threads for integral computing
 -------------------------------------------------------
 OpenMP Integral computing Module                
 Release: version 2.0, May 2017, Q-Chem Inc. Pleasanton 
 -------------------------------------------------------
 A restricted SCF calculation will be
 performed using DIIS
 SCF converges when DIIS error is below 1.0e-07
 ---------------------------------------
  Cycle       Energy         DIIS error
 ---------------------------------------
    1    -641.0047051005      1.34e-03  
    2    -641.0091188925      2.26e-04  
    3    -641.0091463595      2.47e-04  
    4    -641.0092145328      3.40e-05  
    5    -641.0092160965      4.60e-06  
    6    -641.0092161303      6.62e-07  
    7    -641.0092161282      2.47e-07  
    8    -641.0092161297      1.20e-07  
    9    -641.0092161332      1.06e-08  Convergence criterion met
 ---------------------------------------
 SCF time:   CPU 22.90s  wall 6.00s 
 SCF   energy in the final basis set =     -641.0092161332
 Total energy in the final basis set =     -641.0092161332
 
 --------------------------------------------------------------
 
                    Orbital Energies (a.u.)
 --------------------------------------------------------------
 
 Alpha MOs
 -- Occupied --
-77.3782 -24.8148 -24.8147 -24.8144  -6.7876  -4.9093  -4.9093  -4.9016
 -1.3204  -1.2737  -1.2734  -0.6993  -0.5885  -0.5883  -0.5494  -0.5150
 -0.5149  -0.4784  -0.4781  -0.4639  -0.3309
 -- Virtual --
  0.0024   0.0032   0.0996   0.2217   0.2229   0.2260   0.2429   0.3645
  0.3669   0.3674   0.4378   0.4381   0.5395   0.5428   0.5433   0.6145
  0.6419   0.6424   0.6585   0.7290   0.7291   0.8505   0.8515   0.9322
  1.1212   1.1220   1.1456   1.1929   1.1931   1.2685   1.2990   1.3623
  1.3625   1.4478   1.4720   1.4725   1.7041   1.9033   1.9048   1.9579
  1.9580   1.9859   2.1046   2.1058   2.2138   2.4546   2.4860   2.4878
  2.4995   2.5568   2.5763   2.5766   2.6602   2.6609   3.2815   3.3048
  3.3240   3.3247   3.3725   3.3750   3.6171   3.7629   3.7633   4.0382
  4.0817   4.0831   6.6537   6.6540   6.6941   6.8177   6.8294   6.8296
  6.8503   6.8504   6.8526   6.8534   6.8535   6.8562   6.8563   6.8575
  6.9270   6.9565   6.9725   6.9729   6.9740   6.9838   6.9845   7.5924
  7.9073   7.9093   8.3020   8.3023   8.3363   8.3894   8.3896   8.4043
  8.5743   8.5785   8.5793   8.7062   8.7150   8.7966   8.7984   8.9521
  8.9532  15.1207  56.7024  56.7027  56.8497
 --------------------------------------------------------------
 
          Ground-State Mulliken Net Atomic Charges

     Atom                 Charge (a.u.)
  ----------------------------------------
      1 P                     0.747211
      2 F                    -0.248825
      3 F                    -0.249832
      4 F                    -0.248555
  ----------------------------------------
  Sum of atomic charges =     0.000000

 -----------------------------------------------------------------
                    Cartesian Multipole Moments
 -----------------------------------------------------------------
    Charge (ESU x 10^10)
                -0.0000
    Dipole Moment (Debye)
         X      -0.0089      Y       0.0022      Z       0.8823
       Tot       0.8823
    Quadrupole Moments (Debye-Ang)
        XX     -27.6238     XY       0.0004     YY     -27.6303
        XZ      -0.0022     YZ      -0.0071     ZZ     -26.8478
    Octopole Moments (Debye-Ang^2)
       XXX      -2.0987    XXY       0.8277    XYY       2.1082
       YYY      -0.8298    XXZ      -0.4701    XYZ       0.0029
       YYZ      -0.4704    XZZ      -0.0013    YZZ      -0.0070
       ZZZ      -7.5632
    Hexadecapole Moments (Debye-Ang^3)
      XXXX    -107.3219   XXXY      -0.0131   XXYY     -35.8314
      XYYY      -0.0126   YYYY    -107.6473   XXXZ       0.0880
      XXYZ      -0.0343   XYYZ      -0.0602   YYYZ       0.0007
      XXZZ     -25.0219   XYZZ      -0.0009   YYZZ     -25.0712
      XZZZ       0.0185   YZZZ      -0.0313   ZZZZ     -51.6193
 -----------------------------------------------------------------
 Calculating analytic gradient of the SCF energy
 Gradient of SCF Energy
            1           2           3           4
    1  -0.0002228   0.0075246  -0.0042240  -0.0030778
    2  -0.0003031  -0.0009033  -0.0060388   0.0072452
    3  -0.0113839   0.0037474   0.0034916   0.0041450
 Max gradient component =       1.138E-02
 RMS gradient           =       5.376E-03
 Gradient time:  CPU 6.96 s  wall 1.76 s
 Geometry Optimization Parameters
   NAtoms,    NIC,     NZ,  NCons,   NDum,   NFix, NCnnct, MaxDiis
        4      17       0       0       0       0       0       0

 Cartesian Hessian Update
 Hessian updated using BFGS update


** GEOMETRY OPTIMIZATION IN DELOCALIZED INTERNAL COORDINATES **
   Searching for a Minimum

   Optimization Cycle:   2

                       Coordinates (Angstroms)
     ATOM                X               Y               Z
      1  P        -0.0008693419    0.0003934827    0.4703968315
      2  F         1.3716623985   -0.1728379947   -0.2757262292
      3  F        -0.8349995258   -1.1038077165   -0.2752630509
      4  F        -0.5357926137    1.2762538237   -0.2750547811
   Point Group: c1    Number of degrees of freedom:     6


   Energy is   -641.009216133

 Hessian updated using BFGS update

  5 Hessian modes will be used to form the next step
  Hessian Eigenvalues:
     0.249985    0.434265    0.563723    0.563732    0.587043

 Minimum search - taking simple RFO step
 Searching for Lamda that Minimizes Along All modes
 Value Taken    Lamda =  -0.00174268
 Step Taken.  Stepsize is  0.059904

                             Maximum     Tolerance    Cnvgd?
         Gradient           0.029230      0.000300      NO
         Displacement       0.057979      0.001200      NO
         Energy change     -0.000559      0.000001      NO


 New Cartesian Coordinates Obtained by Inverse Iteration

 Displacement from previous Coordinates is:  0.093744
 ----------------------------------------------------------------
             Standard Nuclear Orientation (Angstroms)
    I     Atom           X                Y                Z
 ----------------------------------------------------------------
    1      P      -0.0006628307     0.0001839628     0.4967618471
    2      F       1.3495694144    -0.1695596093    -0.2844097483
    3      F      -0.8219464001    -1.0855686581    -0.2840411688
    4      F      -0.5269592665     1.2549458998    -0.2839581597
 ----------------------------------------------------------------
 Molecular Point Group                 C1    NOp =  1
 Largest Abelian Subgroup              C1    NOp =  1
 Nuclear Repulsion Energy =         191.13715958 hartrees
 There are       21 alpha and       21 beta electrons
 Applying Cartesian multipole field
    Component          Value
    ---------          -----
     (2,0,0)        1.00000E-10
     (0,2,0)        2.00000E-10
     (0,0,2)       -3.00000E-10
 Nucleus-field energy     =     0.0000000205 hartrees
 Requested basis set is def2-TZVP
 There are 46 shells and 130 basis functions
 A cutoff of  1.0D-10 yielded   1003 shell pairs
 There are      8421 function pairs (     11286 Cartesian)
 Smallest overlap matrix eigenvalue = 4.50E-03
 Guess MOs from SCF MO coefficient file

 -----------------------------------------------------------------------
  General SCF calculation program by
  Eric Jon Sundstrom, Paul Horn, Yuezhi Mao, Dmitri Zuev, Alec White,
  David Stuck, Shaama M.S., Shane Yost, Joonho Lee, David Small,
  Daniel Levine, Susi Lehtola, Hugh Burton, Evgeny Epifanovsky
 -----------------------------------------------------------------------
 Exchange:     0.2700 Hartree-Fock + 1.0000 M06
 Correlation:  1.0000 M06
 Using SG-3 standard quadrature grid
 using 4 threads for integral computing
 -------------------------------------------------------
 OpenMP Integral computing Module                
 Release: version 2.0, May 2017, Q-Chem Inc. Pleasanton 
 -------------------------------------------------------
 A restricted SCF calculation will be
 performed using DIIS
 SCF converges when DIIS error is below 1.0e-07
 ---------------------------------------
  Cycle       Energy         DIIS error
 ---------------------------------------
    1    -641.0092344198      5.96e-04  
    2    -641.0100877984      1.07e-04  
    3    -641.0100906675      1.25e-04  
    4    -641.0101090313      1.40e-05  
    5    -641.0101092710      3.15e-06  
    6    -641.0101092888      3.16e-07  
    7    -641.0101092856      1.35e-07  
    8    -641.0101092853      5.23e-08  Convergence criterion met
 ---------------------------------------
 SCF time:   CPU 19.73s  wall 5.00s 
 SCF   energy in the final basis set =     -641.0101092853
 Total energy in the final basis set =     -641.0101092853
 
 --------------------------------------------------------------
 
                    Orbital Energies (a.u.)
 --------------------------------------------------------------
 
 Alpha MOs
 -- Occupied --
-77.3778 -24.8116 -24.8116 -24.8113  -6.7874  -4.9091  -4.9091  -4.9013
 -1.3212  -1.2709  -1.2706  -0.6982  -0.5866  -0.5864  -0.5502  -0.5137
 -0.5137  -0.4737  -0.4735  -0.4597  -0.3372
 -- Virtual --
 -0.0033  -0.0025   0.1086   0.2205   0.2216   0.2281   0.2549   0.3661
  0.3664   0.3667   0.4377   0.4380   0.5406   0.5430   0.5433   0.6108
  0.6440   0.6445   0.6616   0.7315   0.7317   0.8577   0.8584   0.9255
  1.1211   1.1216   1.1480   1.1884   1.1886   1.2657   1.2959   1.3646
  1.3648   1.4540   1.4782   1.4787   1.6909   1.8937   1.8947   1.9607
  1.9609   2.0057   2.1238   2.1249   2.2155   2.4668   2.4719   2.4732
  2.4796   2.5801   2.5803   2.5879   2.6695   2.6700   3.2739   3.3191
  3.3195   3.3261   3.4024   3.4043   3.6358   3.7670   3.7674   4.0506
  4.0805   4.0817   6.6577   6.6579   6.6938   6.8189   6.8311   6.8312
  6.8510   6.8512   6.8547   6.8556   6.8557   6.8580   6.8581   6.8599
  6.9383   6.9574   6.9677   6.9730   6.9734   6.9962   6.9968   7.6256
  7.9036   7.9052   8.3063   8.3065   8.3501   8.3989   8.3992   8.4041
  8.5682   8.5738   8.5742   8.7265   8.7452   8.8113   8.8126   8.9492
  8.9500  15.1195  56.7043  56.7045  56.8610
 --------------------------------------------------------------
 
          Ground-State Mulliken Net Atomic Charges

     Atom                 Charge (a.u.)
  ----------------------------------------
      1 P                     0.752881
      2 F                    -0.250710
      3 F                    -0.251782
      4 F                    -0.250389
  ----------------------------------------
  Sum of atomic charges =     0.000000

 -----------------------------------------------------------------
                    Cartesian Multipole Moments
 -----------------------------------------------------------------
    Charge (ESU x 10^10)
                -0.0000
    Dipole Moment (Debye)
         X      -0.0059      Y       0.0012      Z       1.0922
       Tot       1.0922
    Quadrupole Moments (Debye-Ang)
        XX     -27.5636     XY      -0.0018     YY     -27.5658
        XZ      -0.0004     YZ      -0.0068     ZZ     -26.7124
    Octopole Moments (Debye-Ang^2)
       XXX      -2.0785    XXY       0.8215    XYY       2.0876
       YYY      -0.8152    XXZ      -0.5816    XYZ       0.0028
       YYZ      -0.5814    XZZ       0.0011    YZZ      -0.0049
       ZZZ      -7.9324
    Hexadecapole Moments (Debye-Ang^3)
      XXXX    -104.7073   XXXY      -0.0342   XXYY     -34.9395
      XYYY      -0.0356   YYYY    -104.9148   XXXZ       0.0548
      XXYZ      -0.0201   XYYZ      -0.0305   YYYZ      -0.0050
      XXZZ     -24.8244   XYZZ      -0.0081   YYZZ     -24.8540
      XZZZ       0.0175   YZZZ      -0.0239   ZZZZ     -53.6690
 -----------------------------------------------------------------
 Calculating analytic gradient of the SCF energy
 Gradient of SCF Energy
            1           2           3           4
    1  -0.0000058   0.0014834  -0.0008313  -0.0006463
    2  -0.0003530  -0.0000824  -0.0011278   0.0015633
    3   0.0023974  -0.0008393  -0.0010933  -0.0004649
 Max gradient component =       2.397E-03
 RMS gradient           =       1.119E-03
 Gradient time:  CPU 6.80 s  wall 1.71 s
 Geometry Optimization Parameters
   NAtoms,    NIC,     NZ,  NCons,   NDum,   NFix, NCnnct, MaxDiis
        4      17       0       0       0       0       0       0

 Cartesian Hessian Update
 Hessian updated using BFGS update


** GEOMETRY OPTIMIZATION IN DELOCALIZED INTERNAL COORDINATES **
   Searching for a Minimum

   Optimization Cycle:   3

                       Coordinates (Angstroms)
     ATOM                X               Y               Z
      1  P        -0.0006628307    0.0001839628    0.4967618471
      2  F         1.3495694144   -0.1695596093   -0.2844097483
      3  F        -0.8219464001   -1.0855686581   -0.2840411688
      4  F        -0.5269592665    1.2549458998   -0.2839581597
   Point Group: c1    Number of degrees of freedom:     6


   Energy is   -641.010109285

 Hessian updated using BFGS update

  6 Hessian modes will be used to form the next step
  Hessian Eigenvalues:
     0.249984    0.249999    0.465654    0.536356    0.563730    0.563757

 Minimum search - taking simple RFO step
 Searching for Lamda that Minimizes Along All modes
 Value Taken    Lamda =  -0.00001678
 Step Taken.  Stepsize is  0.005602

                             Maximum     Tolerance    Cnvgd?
         Gradient           0.002644      0.000300      NO
         Displacement       0.004987      0.001200      NO
         Energy change     -0.000893      0.000001      NO


 New Cartesian Coordinates Obtained by Inverse Iteration

 Displacement from previous Coordinates is:  0.005386
 ----------------------------------------------------------------
             Standard Nuclear Orientation (Angstroms)
    I     Atom           X                Y                Z
 ----------------------------------------------------------------
    1      P      -0.0005964787     0.0002496261     0.4962986535
    2      F       1.3480812209    -0.1693691982    -0.2842332003
    3      F      -0.8210711888    -1.0842003572    -0.2839221185
    4      F      -0.5264126364     1.2533215246    -0.2837905644
 ----------------------------------------------------------------
 Molecular Point Group                 C1    NOp =  1
 Largest Abelian Subgroup              C1    NOp =  1
 Nuclear Repulsion Energy =         191.35020174 hartrees
 There are       21 alpha and       21 beta electrons
 Applying Cartesian multipole field
    Component          Value
    ---------          -----
     (2,0,0)        1.00000E-10
     (0,2,0)        2.00000E-10
     (0,0,2)       -3.00000E-10
 Nucleus-field energy     =     0.0000000204 hartrees
 Requested basis set is def2-TZVP
 There are 46 shells and 130 basis functions
 A cutoff of  1.0D-10 yielded   1003 shell pairs
 There are      8421 function pairs (     11286 Cartesian)
 Smallest overlap matrix eigenvalue = 4.49E-03
 Guess MOs from SCF MO coefficient file

 -----------------------------------------------------------------------
  General SCF calculation program by
  Eric Jon Sundstrom, Paul Horn, Yuezhi Mao, Dmitri Zuev, Alec White,
  David Stuck, Shaama M.S., Shane Yost, Joonho Lee, David Small,
  Daniel Levine, Susi Lehtola, Hugh Burton, Evgeny Epifanovsky
 -----------------------------------------------------------------------
 Exchange:     0.2700 Hartree-Fock + 1.0000 M06
 Correlation:  1.0000 M06
 Using SG-3 standard quadrature grid
 using 4 threads for integral computing
 -------------------------------------------------------
 OpenMP Integral computing Module                
 Release: version 2.0, May 2017, Q-Chem Inc. Pleasanton 
 -------------------------------------------------------
 A restricted SCF calculation will be
 performed using DIIS
 SCF converges when DIIS error is below 1.0e-07
 ---------------------------------------
  Cycle       Energy         DIIS error
 ---------------------------------------
    1    -641.0101168303      3.93e-05  
    2    -641.0101194301      1.73e-05  
    3    -641.0101195724      1.25e-05  
    4    -641.0101197486      2.31e-06  
    5    -641.0101197538      2.87e-07  
    6    -641.0101197540      9.94e-08  Convergence criterion met
 ---------------------------------------
 SCF time:   CPU 15.03s  wall 3.00s 
 SCF   energy in the final basis set =     -641.0101197540
 Total energy in the final basis set =     -641.0101197540
 
 --------------------------------------------------------------
 
                    Orbital Energies (a.u.)
 --------------------------------------------------------------
 
 Alpha MOs
 -- Occupied --
-77.3771 -24.8117 -24.8116 -24.8114  -6.7869  -4.9086  -4.9086  -4.9008
 -1.3219  -1.2713  -1.2710  -0.6983  -0.5870  -0.5868  -0.5507  -0.5141
 -0.5141  -0.4740  -0.4737  -0.4599  -0.3368
 -- Virtual --
 -0.0028  -0.0020   0.1094   0.2206   0.2218   0.2280   0.2561   0.3668
  0.3671   0.3674   0.4379   0.4382   0.5406   0.5429   0.5432   0.6107
  0.6445   0.6449   0.6615   0.7318   0.7320   0.8581   0.8588   0.9253
  1.1216   1.1222   1.1480   1.1885   1.1887   1.2661   1.2966   1.3654
  1.3657   1.4549   1.4795   1.4800   1.6907   1.8940   1.8951   1.9607
  1.9608   2.0065   2.1244   2.1255   2.2168   2.4684   2.4732   2.4743
  2.4807   2.5807   2.5809   2.5891   2.6706   2.6710   3.2739   3.3193
  3.3196   3.3273   3.4045   3.4062   3.6375   3.7676   3.7680   4.0525
  4.0820   4.0831   6.6579   6.6582   6.6939   6.8184   6.8307   6.8309
  6.8508   6.8510   6.8544   6.8553   6.8554   6.8578   6.8579   6.8597
  6.9389   6.9577   6.9677   6.9733   6.9736   6.9970   6.9976   7.6282
  7.9074   7.9089   8.3063   8.3065   8.3506   8.3994   8.3996   8.4047
  8.5691   8.5748   8.5751   8.7284   8.7466   8.8130   8.8142   8.9501
  8.9509  15.1335  56.7053  56.7055  56.8631
 --------------------------------------------------------------
 
          Ground-State Mulliken Net Atomic Charges

     Atom                 Charge (a.u.)
  ----------------------------------------
      1 P                     0.750522
      2 F                    -0.249941
      3 F                    -0.251073
      4 F                    -0.249508
  ----------------------------------------
  Sum of atomic charges =     0.000000

 -----------------------------------------------------------------
                    Cartesian Multipole Moments
 -----------------------------------------------------------------
    Charge (ESU x 10^10)
                -0.0000
    Dipole Moment (Debye)
         X      -0.0055      Y       0.0023      Z       1.0799
       Tot       1.0799
    Quadrupole Moments (Debye-Ang)
        XX     -27.5486     XY      -0.0023     YY     -27.5492
        XZ      -0.0005     YZ      -0.0071     ZZ     -26.7211
    Octopole Moments (Debye-Ang^2)
       XXX      -2.0721    XXY       0.8190    XYY       2.0793
       YYY      -0.8104    XXZ      -0.5868    XYZ       0.0028
       YYZ      -0.5867    XZZ       0.0006    YZZ      -0.0049
       ZZZ      -7.9562
    Hexadecapole Moments (Debye-Ang^3)
      XXXX    -104.4860   XXXY      -0.0351   XXYY     -34.8597
      XYYY      -0.0368   YYYY    -104.6582   XXXZ       0.0537
      XXYZ      -0.0213   XYYZ      -0.0319   YYYZ      -0.0072
      XXZZ     -24.7903   XYZZ      -0.0084   YYZZ     -24.8144
      XZZZ       0.0153   YZZZ      -0.0266   ZZZZ     -53.6747
 -----------------------------------------------------------------
 Calculating analytic gradient of the SCF energy
 Gradient of SCF Energy
            1           2           3           4
    1   0.0000037   0.0003516  -0.0001711  -0.0001842
    2  -0.0002473   0.0000551  -0.0002157   0.0004078
    3   0.0007693  -0.0003027  -0.0005799   0.0001133
 Max gradient component =       7.693E-04
 RMS gradient           =       3.531E-04
 Gradient time:  CPU 6.67 s  wall 1.68 s
 Geometry Optimization Parameters
   NAtoms,    NIC,     NZ,  NCons,   NDum,   NFix, NCnnct, MaxDiis
        4      17       0       0       0       0       0       0

 Cartesian Hessian Update
 Hessian updated using BFGS update


** GEOMETRY OPTIMIZATION IN DELOCALIZED INTERNAL COORDINATES **
   Searching for a Minimum

   Optimization Cycle:   4

                       Coordinates (Angstroms)
     ATOM                X               Y               Z
      1  P        -0.0005964787    0.0002496261    0.4962986535
      2  F         1.3480812209   -0.1693691982   -0.2842332003
      3  F        -0.8210711888   -1.0842003572   -0.2839221185
      4  F        -0.5264126364    1.2533215246   -0.2837905644
   Point Group: c1    Number of degrees of freedom:     6


   Energy is   -641.010119754

 Hessian updated using BFGS update

  6 Hessian modes will be used to form the next step
  Hessian Eigenvalues:
     0.249982    0.250112    0.375897    0.499692    0.563736    0.563895

 Minimum search - taking simple RFO step
 Searching for Lamda that Minimizes Along All modes
 Value Taken    Lamda =  -0.00000160
 Step Taken.  Stepsize is  0.002054

                             Maximum     Tolerance    Cnvgd?
         Gradient           0.000765      0.000300      NO
         Displacement       0.002033      0.001200      NO
         Energy change     -0.000010      0.000001      NO


 New Cartesian Coordinates Obtained by Inverse Iteration

 Displacement from previous Coordinates is:  0.001502
 ----------------------------------------------------------------
             Standard Nuclear Orientation (Angstroms)
    I     Atom           X                Y                Z
 ----------------------------------------------------------------
    1      P      -0.0006090267     0.0002906533     0.4958211567
    2      F       1.3477440793    -0.1693314594    -0.2840808972
    3      F      -0.8208697760    -1.0839704339    -0.2837725158
    4      F      -0.5262643596     1.2530128353    -0.2836149735
 ----------------------------------------------------------------
 Molecular Point Group                 C1    NOp =  1
 Largest Abelian Subgroup              C1    NOp =  1
 Nuclear Repulsion Energy =         191.41594817 hartrees
 There are       21 alpha and       21 beta electrons
 Applying Cartesian multipole field
    Component          Value
    ---------          -----
     (2,0,0)        1.00000E-10
     (0,2,0)        2.00000E-10
     (0,0,2)       -3.00000E-10
 Nucleus-field energy     =     0.0000000204 hartrees
 Requested basis set is def2-TZVP
 There are 46 shells and 130 basis functions
 A cutoff of  1.0D-10 yielded   1003 shell pairs
 There are      8421 function pairs (     11286 Cartesian)
 Smallest overlap matrix eigenvalue = 4.49E-03
 Guess MOs from SCF MO coefficient file

 -----------------------------------------------------------------------
  General SCF calculation program by
  Eric Jon Sundstrom, Paul Horn, Yuezhi Mao, Dmitri Zuev, Alec White,
  David Stuck, Shaama M.S., Shane Yost, Joonho Lee, David Small,
  Daniel Levine, Susi Lehtola, Hugh Burton, Evgeny Epifanovsky
 -----------------------------------------------------------------------
 Exchange:     0.2700 Hartree-Fock + 1.0000 M06
 Correlation:  1.0000 M06
 Using SG-3 standard quadrature grid
 using 4 threads for integral computing
 -------------------------------------------------------
 OpenMP Integral computing Module                
 Release: version 2.0, May 2017, Q-Chem Inc. Pleasanton 
 -------------------------------------------------------
 A restricted SCF calculation will be
 performed using DIIS
 SCF converges when DIIS error is below 1.0e-07
 ---------------------------------------
  Cycle       Energy         DIIS error
 ---------------------------------------
    1    -641.0101201086      1.51e-05  
    2    -641.0101204964      7.20e-06  
    3    -641.0101205214      5.08e-06  
    4    -641.0101205506      8.45e-07  
    5    -641.0101205462      1.18e-07  
    6    -641.0101205465      5.32e-08  Convergence criterion met
 ---------------------------------------
 SCF time:   CPU 14.83s  wall 4.00s 
 SCF   energy in the final basis set =     -641.0101205465
 Total energy in the final basis set =     -641.0101205465
 
 --------------------------------------------------------------
 
                    Orbital Energies (a.u.)
 --------------------------------------------------------------
 
 Alpha MOs
 -- Occupied --
-77.3769 -24.8118 -24.8117 -24.8115  -6.7867  -4.9084  -4.9084  -4.9006
 -1.3222  -1.2716  -1.2712  -0.6984  -0.5871  -0.5870  -0.5509  -0.5143
 -0.5142  -0.4741  -0.4739  -0.4600  -0.3365
 -- Virtual --
 -0.0025  -0.0017   0.1097   0.2207   0.2218   0.2280   0.2564   0.3671
  0.3674   0.3676   0.4380   0.4382   0.5406   0.5428   0.5431   0.6107
  0.6446   0.6450   0.6615   0.7319   0.7320   0.8581   0.8588   0.9252
  1.1218   1.1224   1.1479   1.1886   1.1888   1.2663   1.2968   1.3656
  1.3659   1.4552   1.4800   1.4805   1.6908   1.8942   1.8953   1.9606
  1.9608   2.0066   2.1244   2.1255   2.2173   2.4689   2.4737   2.4749
  2.4813   2.5809   2.5812   2.5892   2.6709   2.6714   3.2739   3.3194
  3.3197   3.3274   3.4048   3.4066   3.6379   3.7678   3.7682   4.0531
  4.0825   4.0837   6.6580   6.6583   6.6939   6.8182   6.8305   6.8307
  6.8507   6.8509   6.8543   6.8552   6.8553   6.8577   6.8578   6.8596
  6.9390   6.9578   6.9678   6.9734   6.9737   6.9971   6.9977   7.6288
  7.9088   7.9105   8.3062   8.3064   8.3507   8.3995   8.3997   8.4049
  8.5695   8.5752   8.5755   8.7289   8.7467   8.8135   8.8146   8.9505
  8.9513  15.1387  56.7056  56.7059  56.8637
 --------------------------------------------------------------
 
          Ground-State Mulliken Net Atomic Charges

     Atom                 Charge (a.u.)
  ----------------------------------------
      1 P                     0.749580
      2 F                    -0.249636
      3 F                    -0.250796
      4 F                    -0.249148
  ----------------------------------------
  Sum of atomic charges =     0.000000

 -----------------------------------------------------------------
                    Cartesian Multipole Moments
 -----------------------------------------------------------------
    Charge (ESU x 10^10)
                -0.0000
    Dipole Moment (Debye)
         X      -0.0056      Y       0.0029      Z       1.0729
       Tot       1.0729
    Quadrupole Moments (Debye-Ang)
        XX     -27.5435     XY      -0.0026     YY     -27.5440
        XZ      -0.0004     YZ      -0.0072     ZZ     -26.7260
    Octopole Moments (Debye-Ang^2)
       XXX      -2.0692    XXY       0.8181    XYY       2.0766
       YYY      -0.8086    XXZ      -0.5875    XYZ       0.0029
       YYZ      -0.5875    XZZ       0.0008    YZZ      -0.0050
       ZZZ      -7.9608
    Hexadecapole Moments (Debye-Ang^3)
      XXXX    -104.4276   XXXY      -0.0365   XXYY     -34.8406
      XYYY      -0.0383   YYYY    -104.6018   XXXZ       0.0548
      XXYZ      -0.0220   XYYZ      -0.0324   YYYZ      -0.0085
      XXZZ     -24.7789   XYZZ      -0.0088   YYZZ     -24.8033
      XZZZ       0.0158   YZZZ      -0.0283   ZZZZ     -53.6528
 -----------------------------------------------------------------
 Calculating analytic gradient of the SCF energy
 Gradient of SCF Energy
            1           2           3           4
    1  -0.0000013  -0.0000008   0.0000340  -0.0000320
    2  -0.0001931   0.0000967   0.0000463   0.0000501
    3   0.0000023  -0.0000526  -0.0003384   0.0003886
 Max gradient component =       3.886E-04
 RMS gradient           =       1.637E-04
 Gradient time:  CPU 6.93 s  wall 1.75 s
 Geometry Optimization Parameters
   NAtoms,    NIC,     NZ,  NCons,   NDum,   NFix, NCnnct, MaxDiis
        4      17       0       0       0       0       0       0

 Cartesian Hessian Update
 Hessian updated using BFGS update


** GEOMETRY OPTIMIZATION IN DELOCALIZED INTERNAL COORDINATES **
   Searching for a Minimum

   Optimization Cycle:   5

                       Coordinates (Angstroms)
     ATOM                X               Y               Z
      1  P        -0.0006090267    0.0002906533    0.4958211567
      2  F         1.3477440793   -0.1693314594   -0.2840808972
      3  F        -0.8208697760   -1.0839704339   -0.2837725158
      4  F        -0.5262643596    1.2530128353   -0.2836149735
   Point Group: c1    Number of degrees of freedom:     6


   Energy is   -641.010120547

 Hessian updated using BFGS update

  6 Hessian modes will be used to form the next step
  Hessian Eigenvalues:
     0.249975    0.250157    0.375001    0.501757    0.563737    0.564047

 Minimum search - taking simple RFO step
 Searching for Lamda that Minimizes Along All modes
 Value Taken    Lamda =   0.00000000
 Step Taken.  Stepsize is  0.000031

                             Maximum     Tolerance    Cnvgd?
         Gradient           0.000011      0.000300     YES
         Displacement       0.000022      0.001200     YES
         Energy change     -0.000001      0.000001     YES


                       Distance Matrix (Angstroms)
             P (  1)   F (  2)   F (  3)
   F (  2)  1.566868
   F (  3)  1.567232  2.353604
   F (  4)  1.566253  2.352652  2.355479
 
 Final energy is   -641.010120546545     


 ******************************
 **  OPTIMIZATION CONVERGED  **
 ******************************

                       Coordinates (Angstroms)
     ATOM                X               Y               Z
      1  P        -0.0006090267    0.0002906533    0.4958211567
      2  F         1.3477440793   -0.1693314594   -0.2840808972
      3  F        -0.8208697760   -1.0839704339   -0.2837725158
      4  F        -0.5262643596    1.2530128353   -0.2836149735

Z-matrix Print:
$molecule
0 1
P 
F  1 1.566253
F  1 1.566868 2 97.336342
F  1 1.567232 2 97.477866 3 -98.450929 0
$end

 
 --------------------------------------------------------------
 
                    Orbital Energies (a.u.)
 --------------------------------------------------------------
 
 Alpha MOs
 -- Occupied --
-77.3769 -24.8118 -24.8117 -24.8115  -6.7867  -4.9084  -4.9084  -4.9006
 -1.3222  -1.2716  -1.2712  -0.6984  -0.5871  -0.5870  -0.5509  -0.5143
 -0.5142  -0.4741  -0.4739  -0.4600  -0.3365
 -- Virtual --
 -0.0025  -0.0017   0.1097   0.2207   0.2218   0.2280   0.2564   0.3671
  0.3674   0.3676   0.4380   0.4382   0.5406   0.5428   0.5431   0.6107
  0.6446   0.6450   0.6615   0.7319   0.7320   0.8581   0.8588   0.9252
  1.1218   1.1224   1.1479   1.1886   1.1888   1.2663   1.2968   1.3656
  1.3659   1.4552   1.4800   1.4805   1.6908   1.8942   1.8953   1.9606
  1.9608   2.0066   2.1244   2.1255   2.2173   2.4689   2.4737   2.4749
  2.4813   2.5809   2.5812   2.5892   2.6709   2.6714   3.2739   3.3194
  3.3197   3.3274   3.4048   3.4066   3.6379   3.7678   3.7682   4.0531
  4.0825   4.0837   6.6580   6.6583   6.6939   6.8182   6.8305   6.8307
  6.8507   6.8509   6.8543   6.8552   6.8553   6.8577   6.8578   6.8596
  6.9390   6.9578   6.9678   6.9734   6.9737   6.9971   6.9977   7.6288
  7.9088   7.9105   8.3062   8.3064   8.3507   8.3995   8.3997   8.4049
  8.5695   8.5752   8.5755   8.7289   8.7467   8.8135   8.8146   8.9505
  8.9513  15.1387  56.7056  56.7059  56.8637
 --------------------------------------------------------------
 
          Ground-State Mulliken Net Atomic Charges

     Atom                 Charge (a.u.)
  ----------------------------------------
      1 P                     0.749580
      2 F                    -0.249636
      3 F                    -0.250796
      4 F                    -0.249148
  ----------------------------------------
  Sum of atomic charges =     0.000000

 -----------------------------------------------------------------
                    Cartesian Multipole Moments
 -----------------------------------------------------------------
    Charge (ESU x 10^10)
                -0.0000
    Dipole Moment (Debye)
         X      -0.0056      Y       0.0029      Z       1.0729
       Tot       1.0729
    Quadrupole Moments (Debye-Ang)
        XX     -27.5435     XY      -0.0026     YY     -27.5440
        XZ      -0.0004     YZ      -0.0072     ZZ     -26.7260
    Octopole Moments (Debye-Ang^2)
       XXX      -2.0692    XXY       0.8181    XYY       2.0766
       YYY      -0.8086    XXZ      -0.5875    XYZ       0.0029
       YYZ      -0.5875    XZZ       0.0008    YZZ      -0.0050
       ZZZ      -7.9608
    Hexadecapole Moments (Debye-Ang^3)
      XXXX    -104.4276   XXXY      -0.0365   XXYY     -34.8406
      XYYY      -0.0383   YYYY    -104.6018   XXXZ       0.0548
      XXYZ      -0.0220   XYYZ      -0.0324   YYYZ      -0.0085
      XXZZ     -24.7789   XYZZ      -0.0088   YYZZ     -24.8033
      XZZZ       0.0158   YZZZ      -0.0283   ZZZZ     -53.6528
 -----------------------------------------------------------------
Archival summary:
1\1\gadi-cpu-clx-0263.gadi.nci.org.au\OPT\ProcedureUnspecified\BasisUnspecified\13\pk8622\WedJun2407:27:172020WedJun2407:27:172020\0\\#,OPT,ProcedureUnspecified,BasisUnspecified,\\0,1\P\F,1,1.56625\F,1,1.56687,2,97.3363\F,1,1.56723,2,97.4779,3,-98.4509,0\\\@

 Total job time:  34.52s(wall), 135.85s(cpu) 
 Wed Jun 24 07:27:17 2020

        *************************************************************
        *                                                           *
        *  Thank you very much for using Q-Chem.  Have a nice day.  *
        *                                                           *
        *************************************************************


 
User input: 2 of 2 
 
                  Welcome to Q-Chem
     A Quantum Leap Into The Future Of Chemistry


 Q-Chem 5.2 (devel), Q-Chem, Inc., Pleasanton, CA (2019)

 Yihan Shao,  Zhengting Gan,  E. Epifanovsky,  A. T. B. Gilbert,  M. Wormit,  
 J. Kussmann,  A. W. Lange,  A. Behn,  Jia Deng,  Xintian Feng,  D. Ghosh,  
 M. Goldey,  P. R. Horn,  L. D. Jacobson,  I. Kaliman,  T. Kus,  A. Landau,  
 Jie Liu,  E. I. Proynov,  R. M. Richard,  R. P. Steele,  E. J. Sundstrom,  
 H. L. Woodcock III,  P. M. Zimmerman,  D. Zuev,  B. Albrecht,  E. Alguire,  
 S. A. Baeppler,  D. Barton,  Z. Benda,  Y. A. Bernard,  E. J. Berquist,  
 K. B. Bravaya,  H. Burton,  D. Casanova,  Chun-Min Chang,  Yunqing Chen,  
 A. Chien,  K. D. Closser,  M. P. Coons,  S. Coriani,  S. Dasgupta,  
 A. L. Dempwolff,  M. Diedenhofen,  Hainam Do,  R. G. Edgar,  Po-Tung Fang,  
 S. Faraji,  S. Fatehi,  Qingguo Feng,  K. D. Fenk,  J. Fosso-Tande,  
 J. Gayvert,  Qinghui Ge,  A. Ghysels,  G. Gidofalvi,  J. Gomes,  
 J. Gonthier,  A. Gunina,  D. Hait,  M. W. D. Hanson-Heine,  
 P. H. P. Harbach,  A. W. Hauser,  M. F. Herbst,  J. E. Herr,  
 E. G. Hohenstein,  Z. C. Holden,  Kerwin Hui,  B. C. Huynh,  T.-C. Jagau,  
 Hyunjun Ji,  B. Kaduk,  K. Khistyaev,  Jaehoon Kim,  P. Klunzinger,  K. Koh,  
 D. Kosenkov,  L. Koulias,  T. Kowalczyk,  C. M. Krauter,  A. Kunitsa,  
 Ka Un Lao,  A. Laurent,  K. V. Lawler,  Joonho Lee,  D. Lefrancois,  
 S. Lehtola,  D. S. Levine,  Yi-Pei Li,  You-Sheng Lin,  Fenglai Liu,  
 E. Livshits,  A. Luenser,  P. Manohar,  E. Mansoor,  S. F. Manzer,  
 Shan-Ping Mao,  Yuezhi Mao,  N. Mardirossian,  A. V. Marenich,  
 T. Markovich,  L. A. Martinez-Martinez,  S. A. Maurer,  N. J. Mayhall,  
 S. C. McKenzie,  J.-M. Mewes,  P. Morgante,  A. F. Morrison,  
 J. W. Mullinax,  K. Nanda,  T. S. Nguyen-Beck,  R. Olivares-Amaya,  
 J. A. Parkhill,  Zheng Pei,  T. M. Perrine,  F. Plasser,  P. Pokhilko,  
 S. Prager,  A. Prociuk,  E. Ramos,  D. R. Rehn,  F. Rob,  M. Scheurer,  
 M. Schneider,  N. Sergueev,  S. M. Sharada,  S. Sharma,  D. W. Small,  
 T. Stauch,  T. Stein,  Yu-Chuan Su,  A. J. W. Thom,  A. Tkatchenko,  
 T. Tsuchimochi,  N. M. Tubman,  L. Vogt,  M. L. Vidal,  O. Vydrov,  
 M. A. Watson,  J. Wenzel,  M. de Wergifosse,  T. A. Wesolowski,  A. White,  
 J. Witte,  A. Yamada,  Jun Yang,  K. Yao,  S. Yeganeh,  S. R. Yost,  
 Zhi-Qiang You,  A. Zech,  Igor Ying Zhang,  Xing Zhang,  Yan Zhao,  
 Ying Zhu,  B. R. Brooks,  G. K. L. Chan,  C. J. Cramer,  M. S. Gordon,  
 W. J. Hehre,  A. Klamt,  M. W. Schmidt,  C. D. Sherrill,  D. G. Truhlar,  
 A. Aspuru-Guzik,  R. Baer,  A. T. Bell,  N. A. Besley,  Jeng-Da Chai,  
 A. E. DePrince, III,  R. A. DiStasio Jr.,  A. Dreuw,  B. D. Dunietz,  
 T. R. Furlani,  Chao-Ping Hsu,  Yousung Jung,  Jing Kong,  D. S. Lambrecht,  
 WanZhen Liang,  C. Ochsenfeld,  V. A. Rassolov,  L. V. Slipchenko,  
 J. E. Subotnik,  T. Van Voorhis,  J. M. Herbert,  A. I. Krylov,  
 P. M. W. Gill,  M. Head-Gordon

 Contributors to earlier versions of Q-Chem not listed above: 
 R. D. Adamson,  B. Austin,  J. Baker,  G. J. O. Beran,  K. Brandhorst,  
 S. T. Brown,  E. F. C. Byrd,  A. K. Chakraborty,  C.-L. Cheng,  
 Siu Hung Chien,  D. M. Chipman,  D. L. Crittenden,  H. Dachsel,  
 R. J. Doerksen,  A. D. Dutoi,  L. Fusti-Molnar,  W. A. Goddard III,  
 A. Golubeva-Zadorozhnaya,  S. R. Gwaltney,  G. Hawkins,  A. Heyden,  
 S. Hirata,  G. Kedziora,  F. J. Keil,  C. Kelley,  Jihan Kim,  R. A. King,  
 R. Z. Khaliullin,  P. P. Korambath,  W. Kurlancheek,  A. M. Lee,  M. S. Lee,  
 S. V. Levchenko,  Ching Yeh Lin,  D. Liotard,  R. C. Lochan,  I. Lotan,  
 P. E. Maslen,  N. Nair,  D. P. O'Neill,  D. Neuhauser,  E. Neuscamman,  
 C. M. Oana,  R. Olson,  B. Peters,  R. Peverati,  P. A. Pieniazek,  
 Y. M. Rhee,  J. Ritchie,  M. A. Rohrdanz,  E. Rosta,  N. J. Russ,  
 H. F. Schaefer III,  N. E. Schultz,  N. Shenvi,  A. C. Simmonett,  A. Sodt,  
 D. Stuck,  K. S. Thanthiriwatte,  V. Vanovschi,  Tao Wang,  A. Warshel,  
 C. F. Williams,  Q. Wu,  X. Xu,  W. Zhang

 Please cite Q-Chem as follows:
 Y. Shao et al., Mol. Phys. 113, 184-215 (2015)
 DOI: 10.1080/00268976.2014.952696

 Q-Chem 5.2.0 for Intel X86 EM64T Linux

 Parts of Q-Chem use Armadillo 8.300.2 (Tropical Shenanigans).
 http://arma.sourceforge.net/

 Q-Chem begins on Wed Jun 24 07:27:17 2020  

Host: gadi-cpu-clx-0263.gadi.nci.org.au
0

     Scratch files written to /jobfs/7626483.gadi-pbs/qchem67151//
NAlpha2: 42
NElect   42
Mult     1
The previous job contains 0 fragments, simply inherited here

Checking the input file for inconsistencies... 	...done.

--------------------------------------------------------------
User input:
--------------------------------------------------------------

$molecule
	READ
$end

$rem
	JOBTYPE	FREQ
	METHOD	M06
	BASIS	def2-TZVP
	ANHAR	TRUE
	SCF_CONVERGENCE	7
	VCI	4
$end
--------------------------------------------------------------
 ----------------------------------------------------------------
             Standard Nuclear Orientation (Angstroms)
    I     Atom           X                Y                Z
 ----------------------------------------------------------------
    1      P      -0.0001360189     0.0008781247    -0.5011992297
    2      F      -0.2279583953    -1.3393332168     0.2779063462
    3      F       1.2752045825     0.4717303493     0.2785575461
    4      F      -1.0470194891     0.8661393263     0.2788681572
 ----------------------------------------------------------------
 Molecular Point Group                 C1    NOp =  1
 Largest Abelian Subgroup              C1    NOp =  1
 Nuclear Repulsion Energy =         191.41594817 hartrees
 There are       21 alpha and       21 beta electrons
 Requested basis set is def2-TZVP
 There are 46 shells and 130 basis functions

 Total QAlloc Memory Limit   2000 MB
 Mega-Array Size       188 MB
 MEM_STATIC part       192 MB

                       Distance Matrix (Angstroms)
             P (  1)   F (  2)   F (  3)
   F (  2)  1.566868
   F (  3)  1.567232  2.353604
   F (  4)  1.566253  2.352652  2.355479
 
 A cutoff of  1.0D-10 yielded   1003 shell pairs
 There are      8421 function pairs (     11286 Cartesian)
 Smallest overlap matrix eigenvalue = 4.49E-03
 Guess from superposition of atomic densities
 Warning:  Energy on first SCF cycle will be non-variational
 SAD guess density has 42.000000 electrons

 -----------------------------------------------------------------------
  General SCF calculation program by
  Eric Jon Sundstrom, Paul Horn, Yuezhi Mao, Dmitri Zuev, Alec White,
  David Stuck, Shaama M.S., Shane Yost, Joonho Lee, David Small,
  Daniel Levine, Susi Lehtola, Hugh Burton, Evgeny Epifanovsky
 -----------------------------------------------------------------------
 Exchange:     0.2700 Hartree-Fock + 1.0000 M06
 Correlation:  1.0000 M06
 Using SG-3 standard quadrature grid
 using 4 threads for integral computing
 -------------------------------------------------------
 OpenMP Integral computing Module                
 Release: version 2.0, May 2017, Q-Chem Inc. Pleasanton 
 -------------------------------------------------------
 A restricted SCF calculation will be
 performed using DIIS
 SCF converges when DIIS error is below 1.0e-07
 ---------------------------------------
  Cycle       Energy         DIIS error
 ---------------------------------------
    1    -641.4148081857      4.29e-02  
    2    -640.9233762501      8.28e-03  
    3    -640.8355926768      1.20e-02  
    4    -641.0099250341      3.61e-04  
    5    -641.0101051126      1.17e-04  
    6    -641.0101221976      1.66e-05  
    7    -641.0101225710      7.52e-06  
    8    -641.0101226169      4.04e-06  
    9    -641.0101226361      3.61e-07  
   10    -641.0101226315      3.92e-08  Convergence criterion met
 ---------------------------------------
 SCF time:   CPU 24.14s  wall 6.00s 
 SCF   energy in the final basis set =     -641.0101226315
 Total energy in the final basis set =     -641.0101226315
 
 --------------------------------------------------------------
 
                    Orbital Energies (a.u.)
 --------------------------------------------------------------
 
 Alpha MOs
 -- Occupied --
-77.3769 -24.8119 -24.8115 -24.8114  -6.7867  -4.9084  -4.9084  -4.9006
 -1.3222  -1.2716  -1.2711  -0.6984  -0.5871  -0.5869  -0.5508  -0.5143
 -0.5142  -0.4741  -0.4738  -0.4599  -0.3365
 -- Virtual --
 -0.0027  -0.0017   0.1097   0.2202   0.2216   0.2281   0.2564   0.3671
  0.3674   0.3677   0.4381   0.4383   0.5406   0.5428   0.5433   0.6107
  0.6447   0.6450   0.6618   0.7318   0.7321   0.8582   0.8588   0.9252
  1.1223   1.1227   1.1480   1.1887   1.1887   1.2664   1.2968   1.3657
  1.3659   1.4552   1.4801   1.4805   1.6904   1.8942   1.8952   1.9605
  1.9608   2.0066   2.1245   2.1256   2.2173   2.4689   2.4738   2.4750
  2.4813   2.5809   2.5812   2.5892   2.6710   2.6715   3.2740   3.3194
  3.3198   3.3274   3.4049   3.4066   3.6379   3.7679   3.7681   4.0530
  4.0824   4.0837   6.6581   6.6583   6.6939   6.8182   6.8304   6.8308
  6.8507   6.8509   6.8542   6.8551   6.8553   6.8577   6.8578   6.8596
  6.9390   6.9579   6.9678   6.9734   6.9738   6.9972   6.9978   7.6287
  7.9089   7.9106   8.3062   8.3065   8.3507   8.3995   8.3998   8.4049
  8.5695   8.5752   8.5755   8.7289   8.7467   8.8135   8.8146   8.9506
  8.9514  15.1387  56.7057  56.7058  56.8638
 --------------------------------------------------------------
 
          Ground-State Mulliken Net Atomic Charges

     Atom                 Charge (a.u.)
  ----------------------------------------
      1 P                     0.748970
      2 F                    -0.249399
      3 F                    -0.249668
      4 F                    -0.249903
  ----------------------------------------
  Sum of atomic charges =     0.000000

 -----------------------------------------------------------------
                    Cartesian Multipole Moments
 -----------------------------------------------------------------
    Charge (ESU x 10^10)
                -0.0000
    Dipole Moment (Debye)
         X      -0.0062      Y       0.0073      Z      -1.0723
       Tot       1.0723
    Quadrupole Moments (Debye-Ang)
        XX     -27.5456     XY      -0.0053     YY     -27.5412
        XZ       0.0061     YZ      -0.0008     ZZ     -26.7133
    Octopole Moments (Debye-Ang^2)
       XXX      -1.0900    XXY      -1.9511    XYY       1.0734
       YYY       1.9532    XXZ       0.7354    XYZ       0.0030
       YYZ       0.7384    XZZ      -0.0074    YZZ      -0.0032
       ZZZ       8.3911
    Hexadecapole Moments (Debye-Ang^3)
      XXXX    -104.6275   XXXY      -0.0091   XXYY     -34.8373
      XYYY      -0.0088   YYYY    -104.4000   XXXZ      -0.0056
      XXYZ      -0.0252   XYYZ       0.0164   YYYZ       0.0278
      XXZZ     -24.8143   XYZZ      -0.0058   YYZZ     -24.7817
      XZZZ       0.0142   YZZZ       0.0058   ZZZZ     -53.8238
 -----------------------------------------------------------------
 Calculating MO derivatives via CPSCF
    1     0    15    0.0263631  
    2     0    15    0.0088392  
    3     0    15    0.0016356  
    4     0    15    0.0001681  
    5    11     4    0.0000140  
    6    12     3    0.0000011  
    7    15     0    0.0000001  Converged
 Time for AOints: 3.8 s (CPU) 1.0 s (wall)
 ------------------------------------------------------------------------------
                     AOints        : Timing summary (seconds)
 ------------------------------------------------------------------------------
     job step          cpu (% of tot)      sys (% of tot)     wall (% of tot)
 ------------------------------------------------------------------------------
  AOints            0.3796E+01 ( 3.8)   0.3000E-05 (10.7)   0.9554E+00 ( 3.8)
 ------------------------------------------------------------------------------
   Grand Totals     0.9967E+02          0.2800E-04          0.2496E+02
 ------------------------------------------------------------------------------
 Polarizability Matrix (a.u.)
            1           2           3
    1 -23.5086824   0.0002422  -0.0081586
    2   0.0002422 -23.5394128   0.0335869
    3  -0.0081586   0.0335869 -19.9432909
 Calculating analytic Hessian of the SCF energy
 
 Direct stationary perturbation theory relativistic correction:
 
 rels  =       0.603381298423
 relv  =      -2.285550682241
 rel2e =       0.613379712954
 E_rel =      -1.068789670864
 
 Hessian of the SCF Energy
            1           2           3           4           5           6
    1   0.3901836   0.0008911  -0.0000948  -0.0367532  -0.0327533   0.0244499
    2   0.0008911   0.3882618   0.0010724  -0.0331609  -0.2228605   0.1456930
    3  -0.0000948   0.0010724   0.4481162   0.0203996   0.1204240  -0.1485732
    4  -0.0367532  -0.0331609   0.0203996   0.0446558   0.0407549  -0.0215447
    5  -0.0327533  -0.2228605   0.1204240   0.0407549   0.2763323  -0.1252418
    6   0.0244499   0.1456930  -0.1485732  -0.0215447  -0.1252418   0.1056461
    7  -0.2053154  -0.0642466  -0.1148086  -0.0104917  -0.0214380   0.0011512
    8  -0.0642190  -0.0550598  -0.0417919  -0.0264030  -0.0202362  -0.0104098
    9  -0.1386747  -0.0506649  -0.1499814   0.0105819   0.0010012   0.0214411
   10  -0.1481150   0.0965164   0.0945039   0.0025891   0.0134364  -0.0040564
   11   0.0960812  -0.1103415  -0.0797044   0.0188089  -0.0332356  -0.0100415
   12   0.1143197  -0.0961005  -0.1495615  -0.0094368   0.0038166   0.0214860
            7           8           9          10          11          12
    1  -0.2053154  -0.0642190  -0.1386747  -0.1481150   0.0960812   0.1143197
    2  -0.0642466  -0.0550598  -0.0506649   0.0965164  -0.1103415  -0.0961005
    3  -0.1148086  -0.0417919  -0.1499814   0.0945039  -0.0797044  -0.1495615
    4  -0.0104917  -0.0264030   0.0105819   0.0025891   0.0188089  -0.0094368
    5  -0.0214380  -0.0202362   0.0010012   0.0134364  -0.0332356   0.0038166
    6   0.0011512  -0.0104098   0.0214411  -0.0040564  -0.0100415   0.0214860
    7   0.2535115   0.0804317   0.1195807  -0.0377044   0.0052529  -0.0059233
    8   0.0804317   0.0679219   0.0434199   0.0101902   0.0073741   0.0087818
    9   0.1195807   0.0434199   0.1066886   0.0085121   0.0062439   0.0218518
   10  -0.0377044   0.0101902   0.0085121   0.1832303  -0.1201430  -0.0989596
   11   0.0052529   0.0073741   0.0062439  -0.1201430   0.1362030   0.0835020
   12  -0.0059233   0.0087818   0.0218518  -0.0989596   0.0835020   0.1062238
 **********************************************************************
 **                                                                  **
 **                       VIBRATIONAL ANALYSIS                       **
 **                       --------------------                       **
 **                                                                  **
 **        VIBRATIONAL FREQUENCIES (CM**-1) AND NORMAL MODES         **
 **     FORCE CONSTANTS (mDYN/ANGSTROM) AND REDUCED MASSES (AMU)     **
 **                  INFRARED INTENSITIES (KM/MOL)                   **
 **                                                                  **
 **********************************************************************
 

 Mode:                 1                      2                      3
 Frequency:       347.06                 349.40                 489.73
 Force Cnst:      1.4061                 1.4252                 2.9856
 Red. Mass:      19.8128                19.8146                21.1287
 IR Active:          YES                    YES                    YES
 IR Intens:        4.768                  4.925                 28.221
 Raman Active:       YES                    YES                    YES
               X      Y      Z        X      Y      Z        X      Y      Z
 P         -0.162 -0.204  0.003   -0.204  0.163  0.005    0.004 -0.002  0.422
 F          0.260 -0.389 -0.145    0.608  0.079  0.076   -0.088 -0.461 -0.230
 F         -0.426  0.211  0.137    0.016 -0.604  0.081    0.444  0.169 -0.231
 F          0.431  0.511  0.002   -0.291  0.259 -0.165   -0.363  0.295 -0.227
 TransDip  -0.044 -0.054  0.002   -0.056  0.044  0.002    0.001  0.000  0.170

 Mode:                 4                      5                      6
 Frequency:       870.97                 871.85                 908.88
 Force Cnst:     10.1343                10.1570                10.8742
 Red. Mass:      22.6744                22.6794                22.3426
 IR Active:          YES                    YES                    YES
 IR Intens:      206.703                207.574                149.854
 Raman Active:       YES                    YES                    YES
               X      Y      Z        X      Y      Z        X      Y      Z
 P          0.066  0.550 -0.009    0.551 -0.065  0.002   -0.001  0.010  0.528
 F         -0.099 -0.584  0.350   -0.022 -0.024  0.016    0.064  0.382 -0.280
 F         -0.236 -0.104 -0.153   -0.494 -0.174 -0.308   -0.374 -0.139 -0.289
 F          0.229 -0.209 -0.183   -0.382  0.304  0.289    0.311 -0.259 -0.292
 TransDip   0.055  0.457 -0.006    0.458 -0.054  0.001   -0.001  0.008  0.392

 STANDARD THERMODYNAMIC QUANTITIES AT   298.15 K  AND     1.00 ATM

   This Molecule has  0 Imaginary Frequencies
   Zero point vibrational energy:        5.487 kcal/mol

   Atom    1 Element P  Has Mass   30.97376
   Atom    2 Element F  Has Mass   18.99840
   Atom    3 Element F  Has Mass   18.99840
   Atom    4 Element F  Has Mass   18.99840
   Molecular Mass:    87.968960 amu
   Principal axes and moments of inertia in amu*Bohr^2:
                             1           2           3
    Eigenvalues --      231.25516   231.78571   375.91991
          X               1.00000    -0.00000     0.00000
          Y               0.00000     1.00000    -0.00001
          Z              -0.00000     0.00001     1.00000
   Rotational Symmetry Number is   1
   The Molecule is an Asymmetric Top
   Translational Enthalpy:        0.889 kcal/mol
   Rotational Enthalpy:           0.889 kcal/mol
   Vibrational Enthalpy:          6.196 kcal/mol
   gas constant (RT):             0.592 kcal/mol
   Translational Entropy:        39.336  cal/mol.K
   Rotational Entropy:           24.514  cal/mol.K
   Vibrational Entropy:           3.480  cal/mol.K

   Total Enthalpy:                8.566 kcal/mol
   Total Entropy:                67.330  cal/mol.K
 =====================================================
 =====================================================
 = Starting finite difference calculation for ANHAR  =
 Finite diff step size:  9.99854e-02 a.u.

 Low frequencies less than 300 will be treated as rotation
 Anharmonic Force Field will start with mode 1

 Eng[0,0,0,0] = -6.41010122631475e+02


 You need 0.0002128 GB memory


 CoordNormalMode -1 , 0 , 0 , 0
 ----------------------------------------------------------------
             Standard Nuclear Orientation (Angstroms)
    I     Atom           X                Y                Z
 ----------------------------------------------------------------
    1      P       0.0084499104     0.0116776431    -0.5013780156
    2      F      -0.2417307279    -1.3187367442     0.2855549230
    3      F       1.2977665091     0.4605608521     0.2712918367
    4      F      -1.0698070257     0.8391055161     0.2787767707
 ----------------------------------------------------------------
 Nuclear Repulsion Energy =         191.38857764 hartrees
 There are       21 alpha and       21 beta electrons

                       Distance Matrix (Angstroms)
             P (  1)   F (  2)   F (  3)
   F (  2)  1.565840
   F (  3)  1.568710  2.352904
   F (  4)  1.567136  2.311285  2.397656
 
 Requested basis set is def2-TZVP
 There are 46 shells and 130 basis functions
 A cutoff of  1.0D-10 yielded   1003 shell pairs
 There are      8421 function pairs (     11286 Cartesian)
 Smallest overlap matrix eigenvalue = 4.50E-03
 Guess MOs from SCF MO coefficient file

 -----------------------------------------------------------------------
  General SCF calculation program by
  Eric Jon Sundstrom, Paul Horn, Yuezhi Mao, Dmitri Zuev, Alec White,
  David Stuck, Shaama M.S., Shane Yost, Joonho Lee, David Small,
  Daniel Levine, Susi Lehtola, Hugh Burton, Evgeny Epifanovsky
 -----------------------------------------------------------------------
 Exchange:     0.2700 Hartree-Fock + 1.0000 M06
 Correlation:  1.0000 M06
 Using SG-3 standard quadrature grid
 using 4 threads for integral computing
 -------------------------------------------------------
 OpenMP Integral computing Module                
 Release: version 2.0, May 2017, Q-Chem Inc. Pleasanton 
 -------------------------------------------------------
 A restricted SCF calculation will be
 performed using DIIS
 SCF converges when DIIS error is below 1.0e-07
 ---------------------------------------
  Cycle       Energy         DIIS error
 ---------------------------------------
    1    -641.0089450634      5.13e-04  
    2    -641.0096570023      8.56e-05  
    3    -641.0096607598      9.98e-05  
    4    -641.0096730300      1.43e-05  
    5    -641.0096732803      3.63e-06  
    6    -641.0096732974      1.18e-06  
    7    -641.0096732977      2.59e-07  
    8    -641.0096733010      4.64e-08  Convergence criterion met
 ---------------------------------------
 SCF time:   CPU 19.78s  wall 5.00s 
 SCF   energy in the final basis set =     -641.0096733010
 Total energy in the final basis set =     -641.0096733010
 
 --------------------------------------------------------------
 
                    Orbital Energies (a.u.)
 --------------------------------------------------------------
 
 Alpha MOs
 -- Occupied --
-77.3771 -24.8133 -24.8116 -24.8094  -6.7869  -4.9086  -4.9085  -4.9008
 -1.3220  -1.2733  -1.2688  -0.6983  -0.5887  -0.5850  -0.5507  -0.5155
 -0.5126  -0.4763  -0.4716  -0.4590  -0.3368
 -- Virtual --
 -0.0068   0.0018   0.1092   0.2199   0.2217   0.2281   0.2562   0.3616
  0.3672   0.3728   0.4373   0.4392   0.5393   0.5420   0.5470   0.6106
  0.6432   0.6463   0.6616   0.7284   0.7353   0.8497   0.8674   0.9256
  1.1218   1.1225   1.1476   1.1883   1.1896   1.2660   1.2971   1.3613
  1.3697   1.4546   1.4772   1.4815   1.6897   1.8900   1.9010   1.9596
  1.9628   2.0071   2.1135   2.1393   2.2155   2.4502   2.4693   2.4767
  2.5028   2.5768   2.5844   2.5884   2.6626   2.6778   3.2736   3.3137
  3.3234   3.3281   3.3802   3.4325   3.6369   3.7633   3.7724   4.0508
  4.0692   4.1038   6.6558   6.6609   6.6940   6.8185   6.8303   6.8314
  6.8501   6.8516   6.8538   6.8551   6.8559   6.8575   6.8582   6.8606
  6.9382   6.9571   6.9661   6.9706   6.9792   6.9902   7.0056   7.6275
  7.8892   7.9281   8.3038   8.3098   8.3501   8.3955   8.4021   8.4057
  8.5673   8.5728   8.5850   8.7286   8.7457   8.7969   8.8279   8.9403
  8.9621  15.1360  56.7053  56.7067  56.8648
 --------------------------------------------------------------
 
          Ground-State Mulliken Net Atomic Charges

     Atom                 Charge (a.u.)
  ----------------------------------------
      1 P                     0.749637
      2 F                    -0.250206
      3 F                    -0.248879
      4 F                    -0.250552
  ----------------------------------------
  Sum of atomic charges =     0.000000

 -----------------------------------------------------------------
                    Cartesian Multipole Moments
 -----------------------------------------------------------------
    Charge (ESU x 10^10)
                -0.0000
    Dipole Moment (Debye)
         X       0.0468      Y       0.0660      Z      -1.0778
       Tot       1.0808
    Quadrupole Moments (Debye-Ang)
        XX     -27.6475     XY      -0.0174     YY     -27.4502
        XZ       0.0396     YZ       0.0437     ZZ     -26.7070
    Octopole Moments (Debye-Ang^2)
       XXX      -1.1627    XXY      -1.9917    XYY       1.0516
       YYY       1.8447    XXZ       0.7254    XYZ       0.0034
       YYZ       0.7457    XZZ      -0.0680    YZZ      -0.0877
       ZZZ       8.3777
    Hexadecapole Moments (Debye-Ang^3)
      XXXX    -108.0048   XXXY      -0.3026   XXYY     -34.8634
      XYYY      -0.2625   YYYY    -101.1054   XXXZ       0.3667
      XXYZ       0.1281   XYYZ       0.1416   YYYZ       0.4932
      XXZZ     -25.3425   XYZZ      -0.0927   YYZZ     -24.2700
      XZZZ       0.4475   YZZZ       0.5494   ZZZZ     -53.8171
 -----------------------------------------------------------------
 Eng[-1,0,0,0] = -6.41009673301007e+02
 points done 1/204
 CoordNormalMode -1 , -1 , 0 , 0
 ----------------------------------------------------------------
             Standard Nuclear Orientation (Angstroms)
    I     Atom           X                Y                Z
 ----------------------------------------------------------------
    1      P       0.0170358396     0.0224771614    -0.5015568016
    2      F      -0.2555030606    -1.2981402716     0.2932034999
    3      F       1.3203284358     0.4493913550     0.2640261274
    4      F      -1.0925945622     0.8120717059     0.2786853842
 ----------------------------------------------------------------
 Nuclear Repulsion Energy =         191.30134020 hartrees
 There are       21 alpha and       21 beta electrons

                       Distance Matrix (Angstroms)
             P (  1)   F (  2)   F (  3)
   F (  2)  1.565232
   F (  3)  1.570651  2.353288
   F (  4)  1.569560  2.270226  2.440072
 
 Requested basis set is def2-TZVP
 There are 46 shells and 130 basis functions
 A cutoff of  1.0D-10 yielded   1005 shell pairs
 There are      8423 function pairs (     11288 Cartesian)
 Smallest overlap matrix eigenvalue = 4.52E-03
 Guess MOs from SCF MO coefficient file

 -----------------------------------------------------------------------
  General SCF calculation program by
  Eric Jon Sundstrom, Paul Horn, Yuezhi Mao, Dmitri Zuev, Alec White,
  David Stuck, Shaama M.S., Shane Yost, Joonho Lee, David Small,
  Daniel Levine, Susi Lehtola, Hugh Burton, Evgeny Epifanovsky
 -----------------------------------------------------------------------
 Exchange:     0.2700 Hartree-Fock + 1.0000 M06
 Correlation:  1.0000 M06
 Using SG-3 standard quadrature grid
 using 4 threads for integral computing
 -------------------------------------------------------
 OpenMP Integral computing Module                
 Release: version 2.0, May 2017, Q-Chem Inc. Pleasanton 
 -------------------------------------------------------
 A restricted SCF calculation will be
 performed using DIIS
 SCF converges when DIIS error is below 1.0e-07
 ---------------------------------------
  Cycle       Energy         DIIS error
 ---------------------------------------
    1    -641.0075812443      5.13e-04  
    2    -641.0082923202      9.45e-05  
    3    -641.0082941594      1.15e-04  
    4    -641.0083101390      1.39e-05  
    5    -641.0083103720      4.91e-06  
    6    -641.0083103993      1.40e-06  
    7    -641.0083104004      2.29e-07  
    8    -641.0083104049      4.73e-08  Convergence criterion met
 ---------------------------------------
 SCF time:   CPU 19.72s  wall 5.00s 
 SCF   energy in the final basis set =     -641.0083104049
 Total energy in the final basis set =     -641.0083104049
 
 --------------------------------------------------------------
 
                    Orbital Energies (a.u.)
 --------------------------------------------------------------
 
 Alpha MOs
 -- Occupied --
-77.3777 -24.8150 -24.8105 -24.8073  -6.7873  -4.9092  -4.9090  -4.9013
 -1.3215  -1.2748  -1.2658  -0.6982  -0.5899  -0.5826  -0.5503  -0.5166
 -0.5109  -0.4783  -0.4697  -0.4565  -0.3374
 -- Virtual --
 -0.0118   0.0051   0.1076   0.2191   0.2221   0.2279   0.2554   0.3562
  0.3657   0.3780   0.4367   0.4401   0.5368   0.5447   0.5512   0.6104
  0.6414   0.6474   0.6610   0.7248   0.7386   0.8415   0.8755   0.9267
  1.1202   1.1220   1.1466   1.1877   1.1917   1.2646   1.2978   1.3564
  1.3729   1.4530   1.4721   1.4809   1.6881   1.8872   1.9090   1.9589
  1.9666   2.0081   2.1043   2.1557   2.2102   2.4260   2.4699   2.4770
  2.5265   2.5709   2.5839   2.5890   2.6531   2.6820   3.2728   3.3072
  3.3146   3.3368   3.3627   3.4550   3.6339   3.7588   3.7761   4.0437
  4.0652   4.1273   6.6535   6.6639   6.6944   6.8193   6.8302   6.8326
  6.8496   6.8525   6.8530   6.8548   6.8565   6.8583   6.8593   6.8624
  6.9358   6.9551   6.9623   6.9708   6.9834   6.9860   7.0135   7.6234
  7.8678   7.9438   8.3019   8.3142   8.3484   8.3909   8.4011   8.4083
  8.5684   8.5725   8.5986   8.7271   8.7420   8.7785   8.8367   8.9306
  8.9732  15.1287  56.7041  56.7090  56.8675
 --------------------------------------------------------------
 
          Ground-State Mulliken Net Atomic Charges

     Atom                 Charge (a.u.)
  ----------------------------------------
      1 P                     0.751149
      2 F                    -0.250980
      3 F                    -0.248161
      4 F                    -0.252008
  ----------------------------------------
  Sum of atomic charges =     0.000000

 -----------------------------------------------------------------
                    Cartesian Multipole Moments
 -----------------------------------------------------------------
    Charge (ESU x 10^10)
                -0.0000
    Dipole Moment (Debye)
         X       0.1057      Y       0.1196      Z      -1.0908
       Tot       1.1024
    Quadrupole Moments (Debye-Ang)
        XX     -27.7621     XY      -0.0221     YY     -27.3673
        XZ       0.0715     YZ       0.0888     ZZ     -26.6915
    Octopole Moments (Debye-Ang^2)
       XXX      -1.2219    XXY      -2.0435    XYY       1.0380
       YYY       1.7294    XXZ       0.7114    XYZ       0.0073
       YYZ       0.7505    XZZ      -0.1228    YZZ      -0.1757
       ZZZ       8.3372
    Hexadecapole Moments (Debye-Ang^3)
      XXXX    -111.5144   XXXY      -0.5849   XXYY     -34.9331
      XYYY      -0.5095   YYYY     -97.9264   XXXZ       0.7448
      XXYZ       0.2763   XYYZ       0.2705   YYYZ       0.9546
      XXZZ     -25.8880   XYZZ      -0.1797   YYZZ     -23.7753
      XZZZ       0.8849   YZZZ       1.0867   ZZZZ     -53.7718
 -----------------------------------------------------------------
 Eng[-1,-1,0,0] = -6.41008310404941e+02
 points done 2/204
 CoordNormalMode -2 , 0 , 0 , 0
 ----------------------------------------------------------------
             Standard Nuclear Orientation (Angstroms)
    I     Atom           X                Y                Z
 ----------------------------------------------------------------
    1      P       0.0106612544    -0.0077327488    -0.5014537832
    2      F      -0.2601204793    -1.3435121724     0.2738736744
    3      F       1.2743590903     0.5036628095     0.2742672639
    4      F      -1.0316150873     0.8524244317     0.2876061188
 ----------------------------------------------------------------
 Nuclear Repulsion Energy =         191.40039473 hartrees
 There are       21 alpha and       21 beta electrons

                       Distance Matrix (Angstroms)
             P (  1)   F (  2)   F (  3)
   F (  2)  1.568044
   F (  3)  1.568503  2.401392
   F (  4)  1.564872  2.327559  2.332237
 
 Requested basis set is def2-TZVP
 There are 46 shells and 130 basis functions
 A cutoff of  1.0D-10 yielded   1003 shell pairs
 There are      8421 function pairs (     11286 Cartesian)
[...]
 VCI[3] |  2  0  0  1  0  0 >    1579.54 
 VCI[3] |  1  1  0  1  0  0 >    1580.76 
 VCI[3] |  1  1  0  0  1  0 >    1581.53 
 VCI[3] |  0  2  0  1  0  0 >    1582.56 
 VCI[3] |  0  2  0  0  1  0 >    1584.81 
 VCI[3] |  2  0  0  0  0  1 >    1623.11 
 VCI[3] |  1  1  0  0  0  1 >    1625.75 
 VCI[3] |  0  2  0  0  0  1 >    1628.30 
 VCI[3] |  0  0  0  0  2  0 >    1718.16 
 VCI[3] |  0  0  0  1  1  0 >    1721.41 
 VCI[3] |  0  0  0  2  0  0 >    1724.47 
 VCI[3] |  1  0  1  0  1  0 >    1726.83 
 VCI[3] |  1  0  1  1  0  0 >    1726.99 
 VCI[3] |  0  1  1  1  0  0 >    1728.39 
 VCI[3] |  0  1  1  0  1  0 >    1730.00 
 VCI[3] |  0  0  0  1  0  1 >    1762.96 
 VCI[3] |  0  0  0  0  1  1 >    1766.36 
 VCI[3] |  1  0  1  0  0  1 >    1774.43 
 VCI[3] |  0  1  1  0  0  1 >    1776.96 
 VCI[3] |  0  0  0  0  0  2 >    1802.67 
 VCI[3] |  0  0  2  1  0  0 >    1872.26 
 VCI[3] |  0  0  2  0  1  0 >    1873.18 
 VCI[3] |  0  0  2  0  0  1 >    1923.22 
 VCI[3] |  1  0  0  2  0  0 >    2115.07 
 VCI[3] |  0  1  0  2  0  0 >    2116.12 
 VCI[3] |  1  0  0  1  1  0 >    2116.96 
 VCI[3] |  0  1  0  1  1  0 >    2119.60 
 VCI[3] |  1  0  0  0  2  0 >    2120.43 
 VCI[3] |  0  1  0  0  2  0 >    2123.65 
 VCI[3] |  1  0  0  0  1  1 >    2176.84 
 VCI[3] |  1  0  0  1  0  1 >    2179.91 
 VCI[3] |  0  1  0  0  1  1 >    2180.38 
 VCI[3] |  0  1  0  1  0  1 >    2181.25 
 VCI[3] |  1  0  0  0  0  2 >    2213.71 
 VCI[3] |  0  1  0  0  0  2 >    2216.16 
 VCI[3] |  0  0  1  2  0  0 >    2261.74 
 VCI[3] |  0  0  1  1  1  0 >    2264.34 
 VCI[3] |  0  0  1  0  2  0 >    2268.03 
 VCI[3] |  0  0  1  0  1  1 >    2328.01 
 VCI[3] |  0  0  1  1  0  1 >    2329.75 
 VCI[3] |  0  0  1  0  0  2 >    2367.18 
 VCI[3] |  0  0  0  2  1  0 >    2660.22 
 VCI[3] |  0  0  0  3  0  0 >    2661.32 
 VCI[3] |  0  0  0  1  2  0 >    2671.57 
 VCI[3] |  0  0  0  0  3  0 >    2673.69 
 VCI[3] |  0  0  0  0  2  1 >    2746.08 
 VCI[3] |  0  0  0  1  1  1 >    2750.61 
 VCI[3] |  0  0  0  0  2  1 >    2758.35 
 VCI[3] |  0  0  0  0  1  2 >    2806.77 
 VCI[3] |  0  0  0  1  0  2 >    2813.47 
 VCI[3] |  0  0  0  0  0  3 >    2837.21 
 -----------------------------------------------------------
 VCI[3] construnction time:  CPU    0.10 s  wall    0.03 s
 -----------------------------------------------------------
 VCI[4] |  1  0  0  0  0  0 >     343.57 
 VCI[4] |  0  1  0  0  0  0 >     345.60 
 VCI[4] |  0  0  1  0  0  0 >     485.59 
 VCI[4] |  2  0  0  0  0  0 >     689.81 
 VCI[4] |  1  1  0  0  0  0 >     692.97 
 VCI[4] |  0  2  0  0  0  0 >     694.23 
 VCI[4] |  1  0  1  0  0  0 >     832.19 
 VCI[4] |  0  1  1  0  0  0 >     833.84 
 VCI[4] |  0  0  0  1  0  0 >     857.28 
 VCI[4] |  0  0  0  0  1  0 >     858.04 
 VCI[4] |  0  0  0  0  0  1 >     897.77 
 VCI[4] |  0  0  2  0  0  0 >     974.32 
 VCI[4] |  3  0  0  0  0  0 >    1033.65 
 VCI[4] |  2  1  0  0  0  0 >    1037.20 
 VCI[4] |  1  2  0  0  0  0 >    1039.99 
 VCI[4] |  0  3  0  0  0  0 >    1040.75 
 VCI[4] |  2  0  1  0  0  0 >    1176.86 
 VCI[4] |  1  1  1  0  0  0 >    1179.37 
 VCI[4] |  0  2  1  0  0  0 >    1180.43 
 VCI[4] |  1  0  0  0  1  0 >    1203.30 
 VCI[4] |  1  0  0  1  0  0 >    1205.02 
 VCI[4] |  0  1  0  1  0  0 >    1206.01 
 VCI[4] |  0  1  0  0  1  0 >    1206.34 
 VCI[4] |  1  0  0  0  0  1 >    1244.08 
 VCI[4] |  0  1  0  0  0  1 >    1246.40 
 VCI[4] |  1  0  2  0  0  0 >    1319.43 
 VCI[4] |  0  1  2  0  0  0 >    1320.80 
 VCI[4] |  0  0  1  1  0  0 >    1345.06 
 VCI[4] |  0  0  1  0  1  0 >    1346.01 
 VCI[4] |  0  0  1  0  0  1 >    1386.43 
 VCI[4] |  4  0  0  0  0  0 >    1400.69 
 VCI[4] |  2  2  0  0  0  0 >    1405.56 
 VCI[4] |  1  3  0  0  0  0 >    1406.02 
 VCI[4] |  3  1  0  0  0  0 >    1413.93 
 VCI[4] |  0  4  0  0  0  0 >    1414.31 
 VCI[4] |  0  0  3  0  0  0 >    1461.85 
 VCI[4] |  2  0  0  0  1  0 >    1545.81 
 VCI[4] |  2  0  0  1  0  0 >    1548.23 
 VCI[4] |  1  1  0  0  1  0 >    1549.65 
 VCI[4] |  1  1  0  0  1  0 >    1550.34 
 VCI[4] |  0  2  0  1  0  0 >    1551.06 
 VCI[4] |  0  2  0  0  1  0 >    1551.65 
 VCI[4] |  3  0  1  0  0  0 >    1553.83 
 VCI[4] |  2  1  1  0  0  0 >    1556.42 
 VCI[4] |  1  2  1  0  0  0 >    1560.48 
 VCI[4] |  0  3  1  0  0  0 >    1563.70 
 VCI[4] |  2  0  0  0  0  1 >    1587.36 
 VCI[4] |  1  1  0  0  0  1 >    1590.54 
 VCI[4] |  0  2  0  0  0  1 >    1592.12 
 VCI[4] |  1  0  1  0  1  0 >    1688.61 
 VCI[4] |  1  0  1  0  1  0 >    1690.35 
 VCI[4] |  0  1  1  1  0  0 >    1690.99 
 VCI[4] |  0  1  1  0  1  0 >    1691.43 
 VCI[4] |  2  0  2  0  0  0 >    1702.83 
 VCI[4] |  1  1  2  0  0  0 >    1704.92 
 VCI[4] |  0  2  2  0  0  0 >    1708.78 
 VCI[4] |  0  0  0  0  2  0 >    1714.24 
 VCI[4] |  0  0  0  1  1  0 >    1717.57 
 VCI[4] |  0  0  0  2  0  0 >    1721.78 
 VCI[4] |  1  0  1  0  0  1 >    1730.91 
 VCI[4] |  0  1  1  0  0  1 >    1732.90 
 VCI[4] |  0  0  0  1  0  1 >    1759.68 
 VCI[4] |  0  0  0  0  1  1 >    1763.28 
 VCI[4] |  0  0  0  0  0  2 >    1799.99 
 VCI[4] |  0  0  2  1  0  0 >    1830.96 
 VCI[4] |  0  0  2  0  1  0 >    1832.10 
 VCI[4] |  1  0  3  0  0  0 >    1848.49 
 VCI[4] |  0  1  3  0  0  0 >    1850.96 
 VCI[4] |  0  0  2  0  0  1 >    1874.08 
 VCI[4] |  3  0  0  0  1  0 >    1922.78 
 VCI[4] |  3  0  0  1  0  0 >    1925.06 
 VCI[4] |  2  1  0  0  1  0 >    1926.61 
 VCI[4] |  2  1  0  1  0  0 >    1927.21 
 VCI[4] |  0  3  0  1  0  0 >    1929.55 
 VCI[4] |  1  2  0  0  1  0 >    1930.90 
 VCI[4] |  0  3  0  1  0  0 >    1931.12 
 VCI[4] |  0  3  0  0  1  0 >    1934.12 
 VCI[4] |  3  0  0  0  0  1 >    1968.56 
 VCI[4] |  2  1  0  0  0  1 >    1971.41 
 VCI[4] |  2  1  0  0  0  1 >    1975.02 
 VCI[4] |  0  3  0  0  0  1 >    1977.23 
 VCI[4] |  0  0  4  0  0  0 >    1992.13 
 VCI[4] |  1  0  0  0  2  0 >    2057.79 
 VCI[4] |  0  1  0  2  0  0 >    2060.16 
 VCI[4] |  1  0  0  1  1  0 >    2062.19 
 VCI[4] |  0  1  0  1  1  0 >    2063.22 
 VCI[4] |  1  0  0  2  0  0 >    2064.66 
 VCI[4] |  0  1  0  2  0  0 >    2066.44 
 VCI[4] |  2  0  1  0  1  0 >    2074.33 
 VCI[4] |  2  0  1  1  0  0 >    2075.69 
 VCI[4] |  1  1  1  1  0  0 >    2076.79 
 VCI[4] |  1  1  1  0  1  0 >    2077.61 
 VCI[4] |  0  2  1  1  0  0 >    2079.15 
 VCI[4] |  0  2  1  0  1  0 >    2081.48 
 VCI[4] |  1  0  0  1  0  1 >    2103.56 
 VCI[4] |  0  1  0  1  0  1 >    2105.64 
 VCI[4] |  1  0  0  0  1  1 >    2106.63 
 VCI[4] |  0  1  0  0  1  1 >    2109.07 
 VCI[4] |  2  0  1  0  0  1 >    2122.82 
 VCI[4] |  1  1  1  0  0  1 >    2125.25 
 VCI[4] |  0  2  1  0  0  1 >    2128.46 
 VCI[4] |  1  0  0  0  0  2 >    2143.46 
 VCI[4] |  0  1  0  0  0  2 >    2145.99 
 VCI[4] |  0  0  1  0  2  0 >    2200.30 
 VCI[4] |  0  0  1  1  1  0 >    2203.70 
 VCI[4] |  0  0  1  0  2  0 >    2206.40 
 VCI[4] |  1  0  2  0  1  0 >    2222.44 
 VCI[4] |  1  0  2  1  0  0 >    2222.54 
 VCI[4] |  0  1  2  1  0  0 >    2223.99 
 VCI[4] |  0  1  2  0  1  0 >    2225.67 
 VCI[4] |  0  0  1  1  0  1 >    2246.78 
 VCI[4] |  0  0  1  0  1  1 >    2249.95 
 VCI[4] |  1  0  2  0  0  1 >    2273.48 
 VCI[4] |  0  1  2  0  0  1 >    2276.10 
 VCI[4] |  0  0  1  0  0  2 >    2287.82 
 VCI[4] |  0  0  3  1  0  0 >    2367.20 
 VCI[4] |  0  0  3  0  1  0 >    2368.18 
 VCI[4] |  0  0  3  0  0  1 >    2421.65 
 VCI[4] |  2  0  0  0  2  0 >    2457.27 
 VCI[4] |  1  1  0  2  0  0 >    2458.84 
 VCI[4] |  2  0  0  1  1  0 >    2458.90 
 VCI[4] |  0  2  0  2  0  0 >    2460.27 
 VCI[4] |  1  1  0  1  1  0 >    2461.61 
 VCI[4] |  2  0  0  2  0  0 >    2462.47 
 VCI[4] |  0  2  0  1  1  0 >    2464.36 
 VCI[4] |  1  1  0  0  2  0 >    2465.40 
 VCI[4] |  0  2  0  0  2  0 >    2468.94 
 VCI[4] |  2  0  0  0  1  1 >    2517.69 
 VCI[4] |  1  1  0  0  1  1 >    2521.52 
 VCI[4] |  2  0  0  1  0  1 >    2522.15 
 VCI[4] |  1  1  0  1  0  1 >    2523.38 
 VCI[4] |  0  2  0  1  0  1 >    2524.94 
 VCI[4] |  0  2  0  0  1  1 >    2525.23 
 VCI[4] |  2  0  0  0  0  2 >    2555.44 
 VCI[4] |  1  1  0  0  0  2 >    2558.05 
 VCI[4] |  0  2  0  0  0  2 >    2560.52 
 VCI[4] |  0  0  0  0  3  0 >    2573.40 
 VCI[4] |  0  0  0  3  0  0 >    2574.49 
 VCI[4] |  0  0  0  2  1  0 >    2584.37 
 VCI[4] |  0  0  0  3  0  0 >    2584.67 
 VCI[4] |  1  0  1  2  0  0 >    2606.47 
 VCI[4] |  0  1  1  2  0  0 >    2607.52 
 VCI[4] |  1  0  1  1  1  0 >    2608.22 
 VCI[4] |  0  1  1  1  1  0 >    2610.87 
 VCI[4] |  1  0  1  0  2  0 >    2611.67 
 VCI[4] |  0  1  1  0  2  0 >    2614.92 
 VCI[4] |  0  0  0  2  0  1 >    2624.58 
 VCI[4] |  0  0  0  1  1  1 >    2626.96 
 VCI[4] |  0  0  0  0  2  1 >    2630.77 
 VCI[4] |  0  0  0  1  0  2 >    2665.22 
 VCI[4] |  0  0  0  0  1  2 >    2669.55 
 VCI[4] |  1  0  1  0  1  1 >    2671.17 
 VCI[4] |  1  0  1  1  0  1 >    2673.96 
 VCI[4] |  0  1  1  0  1  1 >    2674.60 
 VCI[4] |  0  1  1  1  0  1 >    2675.35 
 VCI[4] |  0  0  0  0  0  3 >    2703.40 
 VCI[4] |  1  0  1  0  0  2 >    2711.24 
 VCI[4] |  0  1  1  0  0  2 >    2713.79 
 VCI[4] |  0  0  2  2  0  0 >    2752.63 
 VCI[4] |  0  0  2  1  1  0 >    2755.08 
 VCI[4] |  0  0  2  0  2  0 >    2758.77 
 VCI[4] |  0  0  2  0  1  1 >    2821.71 
 VCI[4] |  0  0  2  1  0  1 >    2823.27 
 VCI[4] |  0  0  2  0  0  2 >    2864.21 
 VCI[4] |  1  0  0  2  1  0 >    2998.77 
 VCI[4] |  0  1  0  3  0  0 >    3000.88 
 VCI[4] |  0  1  0  2  1  0 >    3001.39 
 VCI[4] |  1  0  0  3  0  0 >    3001.73 
 VCI[4] |  1  0  0  1  2  0 >    3009.87 
 VCI[4] |  1  0  0  0  3  0 >    3011.48 
 VCI[4] |  0  1  0  1  2  0 >    3012.99 
 VCI[4] |  0  1  0  0  3  0 >    3015.63 
 VCI[4] |  1  0  0  0  2  1 >    3084.06 
 VCI[4] |  0  1  0  0  2  1 >    3086.54 
 VCI[4] |  1  0  0  1  1  1 >    3088.30 
 VCI[4] |  0  1  0  1  1  1 >    3091.10 
 VCI[4] |  1  0  0  2  0  1 >    3096.57 
 VCI[4] |  0  1  0  0  2  1 >    3098.98 
 VCI[4] |  1  0  0  0  1  2 >    3142.93 
 VCI[4] |  0  0  1  2  1  0 >    3146.94 
 VCI[4] |  0  1  0  0  1  2 >    3147.85 
 VCI[4] |  0  0  1  3  0  0 >    3148.44 
 VCI[4] |  1  0  0  1  0  2 >    3151.63 
 VCI[4] |  0  1  0  1  0  2 >    3152.95 
 VCI[4] |  0  0  1  1  2  0 >    3158.49 
 VCI[4] |  0  0  1  0  3  0 >    3160.51 
 VCI[4] |  1  0  0  0  0  3 >    3175.39 
 VCI[4] |  0  1  0  0  0  3 >    3176.38 
 VCI[4] |  0  0  1  0  2  1 >    3236.15 
 VCI[4] |  0  0  1  1  1  1 >    3240.11 
 VCI[4] |  0  0  1  0  2  1 >    3248.34 
 VCI[4] |  0  0  1  0  1  2 >    3298.81 
 VCI[4] |  0  0  1  1  0  2 >    3305.64 
 VCI[4] |  0  0  1  0  0  3 >    3331.18 
 VCI[4] |  0  0  0  4  0  0 >    3550.52 
 VCI[4] |  0  0  0  3  1  0 >    3552.40 
 VCI[4] |  0  0  0  2  2  0 >    3558.84 
 VCI[4] |  0  0  0  1  3  0 >    3572.55 
 VCI[4] |  0  0  0  0  4  0 >    3574.94 
 VCI[4] |  0  0  0  1  2  1 >    3661.93 
 VCI[4] |  0  0  0  2  1  1 >    3668.23 
 VCI[4] |  0  0  0  1  2  1 >    3682.95 
 VCI[4] |  0  0  0  2  1  1 >    3686.01 
 VCI[4] |  0  0  0  1  0  3 >    3739.90 
 VCI[4] |  0  0  0  1  1  2 >    3753.11 
 VCI[4] |  0  0  0  0  0  4 >    3760.71 
 VCI[4] |  0  0  0  0  1  3 >    3812.85 
 VCI[4] |  0  0  0  0  2  2 >    3823.10 
 VCI[4] |  0  0  0  2  0  2 >    3856.81 
 -----------------------------------------------------------
 VCI[4] construnction time:  CPU    0.59 s  wall    0.15 s
 -----------------------------------------------------------
 VCI time:                    CPU    0.71 s  wall    0.18 s
 ----------------------------------------------------------------
             Standard Nuclear Orientation (Angstroms)
    I     Atom           X                Y                Z
 ----------------------------------------------------------------
    1      P      -0.0001360189     0.0008781247    -0.5011992297
    2      F      -0.2279583953    -1.3393332168     0.2779063462
    3      F       1.2752045825     0.4717303493     0.2785575461
    4      F      -1.0470194891     0.8661393263     0.2788681572
 ----------------------------------------------------------------
 Nuclear Repulsion Energy =         191.41594817 hartrees
 There are       21 alpha and       21 beta electrons

 = Finishing finite difference calculation for ANHAR =
 =====================================================
 =====================================================
 Requested basis set is def2-TZVP
 There are 46 shells and 130 basis functions
 **********************************************************************
 **                                                                  **
 **                       VIBRATIONAL ANALYSIS                       **
 **                       --------------------                       **
 **                                                                  **
 **        VIBRATIONAL FREQUENCIES (CM**-1) AND NORMAL MODES         **
 **     FORCE CONSTANTS (mDYN/ANGSTROM) AND REDUCED MASSES (AMU)     **
 **                  INFRARED INTENSITIES (KM/MOL)                   **
 **                                                                  **
 **********************************************************************
 

 Mode:                 1                      2                      3
 Frequency:       347.06                 349.40                 489.73
 Force Cnst:      1.4061                 1.4252                 2.9856
 Red. Mass:      19.8128                19.8146                21.1287
 IR Active:          YES                    YES                    YES
 IR Intens:        4.768                  4.925                 28.221
 Raman Active:       YES                    YES                    YES
               X      Y      Z        X      Y      Z        X      Y      Z
 P         -0.162 -0.204  0.003   -0.204  0.163  0.005    0.004 -0.002  0.422
 F          0.260 -0.389 -0.145    0.608  0.079  0.076   -0.088 -0.461 -0.230
 F         -0.426  0.211  0.137    0.016 -0.604  0.081    0.444  0.169 -0.231
 F          0.431  0.511  0.002   -0.291  0.259 -0.165   -0.363  0.295 -0.227
 TransDip  -0.044 -0.054  0.002   -0.056  0.044  0.002    0.001  0.000  0.170

 Mode:                 4                      5                      6
 Frequency:       870.97                 871.85                 908.88
 Force Cnst:     10.1343                10.1570                10.8742
 Red. Mass:      22.6744                22.6794                22.3426
 IR Active:          YES                    YES                    YES
 IR Intens:      206.703                207.574                149.854
 Raman Active:       YES                    YES                    YES
               X      Y      Z        X      Y      Z        X      Y      Z
 P          0.066  0.550 -0.009    0.551 -0.065  0.002   -0.001  0.010  0.528
 F         -0.099 -0.584  0.350   -0.022 -0.024  0.016    0.064  0.382 -0.280
 F         -0.236 -0.104 -0.153   -0.494 -0.174 -0.308   -0.374 -0.139 -0.289
 F          0.229 -0.209 -0.183   -0.382  0.304  0.289    0.311 -0.259 -0.292
 TransDip   0.055  0.457 -0.006    0.458 -0.054  0.001   -0.001  0.008  0.392

 ======================================================================
                     VIBRATIONAL ANHARMONIC ANALYSIS                   
                     -------------------------------                   
 WARNING! Low frequency modes less than  300 are treated as rotation
 No anharmonic shift applied, please see IGNORE_LOW_FREQ for more details.
 WARNING! THESE RESULTS ARE CALCULATED WTIHOUT Eta_ijk AND Eta_ijkl
                                                                       
 TOSH[ 1]   343.57    VPT2[ 1]   343.55
 TOSH[ 2]   345.96    VPT2[ 2]   345.54
 TOSH[ 3]   486.50    VPT2[ 3]   485.49
 TOSH[ 4]   858.80    VPT2[ 4]   857.00
 TOSH[ 5]   857.45    VPT2[ 5]   857.47
 TOSH[ 6]   902.69    VPT2[ 6]   896.64

 VCI[ 1]mode[ 1]=  0.99 quanta *  355.12
 VCI[ 1]mode[ 2]=  0.99 quanta *  357.43
 VCI[ 1]mode[ 3]=  1.00 quanta *  500.49
 VCI[ 1]mode[ 4]=  1.00 quanta *  888.13
 VCI[ 1]mode[ 5]=  1.00 quanta *  888.94
 VCI[ 1]mode[ 6]=  0.99 quanta *  932.82

 VCI[ 2]mode[ 1]=  0.99 quanta *  344.08
 VCI[ 2]mode[ 2]=  0.99 quanta *  346.12
 VCI[ 2]mode[ 3]=  0.99 quanta *  486.13
 VCI[ 2]mode[ 4]=  0.90 quanta *  860.41
 VCI[ 2]mode[ 5]=  0.90 quanta *  861.31
 VCI[ 2]mode[ 6]=  0.97 quanta *  900.39

 VCI[ 3]mode[ 1]=  0.99 quanta *  346.39
 VCI[ 3]mode[ 2]=  0.99 quanta *  348.44
 VCI[ 3]mode[ 3]=  0.99 quanta *  488.32
 VCI[ 3]mode[ 4]=  0.86 quanta *  862.07
 VCI[ 3]mode[ 5]=  0.86 quanta *  862.85
 VCI[ 3]mode[ 6]=  0.97 quanta *  902.10

 VCI[ 4]mode[ 1]=  0.99 quanta *  343.57
 VCI[ 4]mode[ 2]=  0.99 quanta *  345.60
 VCI[ 4]mode[ 3]=  0.98 quanta *  485.59
 VCI[ 4]mode[ 4]=  0.82 quanta *  857.28
 VCI[ 4]mode[ 5]=  0.82 quanta *  858.04
 VCI[ 4]mode[ 6]=  0.97 quanta *  897.77

 ======================================================================

 STANDARD THERMODYNAMIC QUANTITIES AT   298.15 K  AND     1.00 ATM

   This Molecule has  0 Imaginary Frequencies
   Zero point vibrational energy:        5.487 kcal/mol

   Atom    1 Element P  Has Mass   30.97376
   Atom    2 Element F  Has Mass   18.99840
   Atom    3 Element F  Has Mass   18.99840
   Atom    4 Element F  Has Mass   18.99840
   Molecular Mass:    87.968960 amu
   Principal axes and moments of inertia in amu*Bohr^2:
                             1           2           3
    Eigenvalues --      231.25516   231.78571   375.91991
          X               1.00000    -0.00000     0.00000
          Y               0.00000     1.00000    -0.00001
          Z              -0.00000     0.00001     1.00000
   Rotational Symmetry Number is   1
   The Molecule is an Asymmetric Top
   Translational Enthalpy:        0.889 kcal/mol
   Rotational Enthalpy:           0.889 kcal/mol
   Vibrational Enthalpy:          6.196 kcal/mol
   gas constant (RT):             0.592 kcal/mol
   Translational Entropy:        39.336  cal/mol.K
   Rotational Entropy:           24.514  cal/mol.K
   Vibrational Entropy:           3.480  cal/mol.K

   Total Enthalpy:                8.566 kcal/mol
   Total Entropy:                67.330  cal/mol.K

 ======================================================================

 STANDARD THERMODYNAMIC QUANTITIES FOR ANHARMONIC VIBRATION -- TOSH

   Zero point vibrational energy:        5.425 kcal/mol

   Vibrational Enthalpy:          6.146 kcal/mol
   Vibrational Entropy:           3.541  cal/mol.K

   Total Enthalpy:                8.516 kcal/mol
   Total Entropy:                67.390  cal/mol.K

 ======================================================================

 STANDARD THERMODYNAMIC QUANTITIES FOR ANHARMONIC VIBRATION -- VPT2

   Zero point vibrational energy:        5.412 kcal/mol

   Vibrational Enthalpy:          6.134 kcal/mol
   Vibrational Entropy:           3.550  cal/mol.K

   Total Enthalpy:                8.504 kcal/mol
   Total Entropy:                67.399  cal/mol.K

 ======================================================================

 STANDARD THERMODYNAMIC QUANTITIES FOR ANHARMONIC VIBRATION -- VCI 4

   Zero point vibrational energy:        5.415 kcal/mol

   Vibrational Enthalpy:          6.137 kcal/mol
   Vibrational Entropy:           3.548  cal/mol.K

   Total Enthalpy:                8.507 kcal/mol
   Total Entropy:                67.398  cal/mol.K

 ======================================================================
 
Archival summary:
1\1\gadi-cpu-clx-0263.gadi.nci.org.au\FREQ\ProcedureUnspecified\BasisUnspecified\13\pk8622\WedJun2407:48:352020WedJun2407:48:352020\0\\#,FREQ,ProcedureUnspecified,BasisUnspecified,\\0,1\P\F,1,1.56625\F,1,1.56687,2,97.3363\F,1,1.56723,2,97.4779,3,-98.4509,0\\\@

 Total job time:  1278.02s(wall), 5073.61s(cpu) 
 Wed Jun 24 07:48:35 2020

        *************************************************************
        *                                                           *
        *  Thank you very much for using Q-Chem.  Have a nice day.  *
        *                                                           *
        *************************************************************


