                  Welcome to Q-Chem
     A Quantum Leap Into The Future Of Chemistry


 Q-Chem 5.2 (devel), Q-Chem, Inc., Pleasanton, CA (2019)

 Yihan Shao,  Zhengting Gan,  E. Epifanovsky,  A. T. B. Gilbert,  M. Wormit,  
 J. Kussmann,  A. W. Lange,  A. Behn,  Jia Deng,  Xintian Feng,  D. Ghosh,  
 M. Goldey,  P. R. Horn,  L. D. Jacobson,  I. Kaliman,  T. Kus,  A. Landau,  
 Jie Liu,  E. I. Proynov,  R. M. Richard,  R. P. Steele,  E. J. Sundstrom,  
 H. L. Woodcock III,  P. M. Zimmerman,  D. Zuev,  B. Albrecht,  E. Alguire,  
 S. A. Baeppler,  D. Barton,  Z. Benda,  Y. A. Bernard,  E. J. Berquist,  
 K. B. Bravaya,  H. Burton,  D. Casanova,  Chun-Min Chang,  Yunqing Chen,  
 A. Chien,  K. D. Closser,  M. P. Coons,  S. Coriani,  S. Dasgupta,  
 A. L. Dempwolff,  M. Diedenhofen,  Hainam Do,  R. G. Edgar,  Po-Tung Fang,  
 S. Faraji,  S. Fatehi,  Qingguo Feng,  K. D. Fenk,  J. Fosso-Tande,  
 J. Gayvert,  Qinghui Ge,  A. Ghysels,  G. Gidofalvi,  J. Gomes,  
 J. Gonthier,  A. Gunina,  D. Hait,  M. W. D. Hanson-Heine,  
 P. H. P. Harbach,  A. W. Hauser,  M. F. Herbst,  J. E. Herr,  
 E. G. Hohenstein,  Z. C. Holden,  Kerwin Hui,  B. C. Huynh,  T.-C. Jagau,  
 Hyunjun Ji,  B. Kaduk,  K. Khistyaev,  Jaehoon Kim,  P. Klunzinger,  K. Koh,  
 D. Kosenkov,  L. Koulias,  T. Kowalczyk,  C. M. Krauter,  A. Kunitsa,  
 Ka Un Lao,  A. Laurent,  K. V. Lawler,  Joonho Lee,  D. Lefrancois,  
 S. Lehtola,  D. S. Levine,  Yi-Pei Li,  You-Sheng Lin,  Fenglai Liu,  
 E. Livshits,  A. Luenser,  P. Manohar,  E. Mansoor,  S. F. Manzer,  
 Shan-Ping Mao,  Yuezhi Mao,  N. Mardirossian,  A. V. Marenich,  
 T. Markovich,  L. A. Martinez-Martinez,  S. A. Maurer,  N. J. Mayhall,  
 S. C. McKenzie,  J.-M. Mewes,  P. Morgante,  A. F. Morrison,  
 J. W. Mullinax,  K. Nanda,  T. S. Nguyen-Beck,  R. Olivares-Amaya,  
 J. A. Parkhill,  Zheng Pei,  T. M. Perrine,  F. Plasser,  P. Pokhilko,  
 S. Prager,  A. Prociuk,  E. Ramos,  D. R. Rehn,  F. Rob,  M. Scheurer,  
 M. Schneider,  N. Sergueev,  S. M. Sharada,  S. Sharma,  D. W. Small,  
 T. Stauch,  T. Stein,  Yu-Chuan Su,  A. J. W. Thom,  A. Tkatchenko,  
 T. Tsuchimochi,  N. M. Tubman,  L. Vogt,  M. L. Vidal,  O. Vydrov,  
 M. A. Watson,  J. Wenzel,  M. de Wergifosse,  T. A. Wesolowski,  A. White,  
 J. Witte,  A. Yamada,  Jun Yang,  K. Yao,  S. Yeganeh,  S. R. Yost,  
 Zhi-Qiang You,  A. Zech,  Igor Ying Zhang,  Xing Zhang,  Yan Zhao,  
 Ying Zhu,  B. R. Brooks,  G. K. L. Chan,  C. J. Cramer,  M. S. Gordon,  
 W. J. Hehre,  A. Klamt,  M. W. Schmidt,  C. D. Sherrill,  D. G. Truhlar,  
 A. Aspuru-Guzik,  R. Baer,  A. T. Bell,  N. A. Besley,  Jeng-Da Chai,  
 A. E. DePrince, III,  R. A. DiStasio Jr.,  A. Dreuw,  B. D. Dunietz,  
 T. R. Furlani,  Chao-Ping Hsu,  Yousung Jung,  Jing Kong,  D. S. Lambrecht,  
 WanZhen Liang,  C. Ochsenfeld,  V. A. Rassolov,  L. V. Slipchenko,  
 J. E. Subotnik,  T. Van Voorhis,  J. M. Herbert,  A. I. Krylov,  
 P. M. W. Gill,  M. Head-Gordon

 Contributors to earlier versions of Q-Chem not listed above: 
 R. D. Adamson,  B. Austin,  J. Baker,  G. J. O. Beran,  K. Brandhorst,  
 S. T. Brown,  E. F. C. Byrd,  A. K. Chakraborty,  C.-L. Cheng,  
 Siu Hung Chien,  D. M. Chipman,  D. L. Crittenden,  H. Dachsel,  
 R. J. Doerksen,  A. D. Dutoi,  L. Fusti-Molnar,  W. A. Goddard III,  
 A. Golubeva-Zadorozhnaya,  S. R. Gwaltney,  G. Hawkins,  A. Heyden,  
 S. Hirata,  G. Kedziora,  F. J. Keil,  C. Kelley,  Jihan Kim,  R. A. King,  
 R. Z. Khaliullin,  P. P. Korambath,  W. Kurlancheek,  A. M. Lee,  M. S. Lee,  
 S. V. Levchenko,  Ching Yeh Lin,  D. Liotard,  R. C. Lochan,  I. Lotan,  
 P. E. Maslen,  N. Nair,  D. P. O'Neill,  D. Neuhauser,  E. Neuscamman,  
 C. M. Oana,  R. Olson,  B. Peters,  R. Peverati,  P. A. Pieniazek,  
 Y. M. Rhee,  J. Ritchie,  M. A. Rohrdanz,  E. Rosta,  N. J. Russ,  
 H. F. Schaefer III,  N. E. Schultz,  N. Shenvi,  A. C. Simmonett,  A. Sodt,  
 D. Stuck,  K. S. Thanthiriwatte,  V. Vanovschi,  Tao Wang,  A. Warshel,  
 C. F. Williams,  Q. Wu,  X. Xu,  W. Zhang

 Please cite Q-Chem as follows:
 Y. Shao et al., Mol. Phys. 113, 184-215 (2015)
 DOI: 10.1080/00268976.2014.952696

 Q-Chem 5.2.0 for Intel X86 EM64T Linux

 Parts of Q-Chem use Armadillo 8.300.2 (Tropical Shenanigans).
 http://arma.sourceforge.net/

 Q-Chem begins on Tue Jun 23 21:56:17 2020  

Host: gadi-cpu-clx-0263.gadi.nci.org.au
0

     Scratch files written to /jobfs/7626483.gadi-pbs/qchem39277//
NAlpha2: 18
NElect   18
Mult     1

Checking the input file for inconsistencies... 	...done.

--------------------------------------------------------------
User input:
--------------------------------------------------------------
$comment
	QCHEM - Silane
	Geometry optimization
	Anharmonic frequency analysis
$end

$molecule
0 1
Si         0.00646        1.04427       -0.00000
H          1.49146        1.04427        0.00000
H         -0.48854        0.03020       -0.96533
H         -0.48854        2.38730       -0.39554
H         -0.48854        0.71530        1.36087

$end

$rem
	JOBTYPE	OPT
	METHOD	M06
	BASIS	def2-TZVP
	SCF_CONVERGENCE	7
$end

--------------------------------------------------------------
 ----------------------------------------------------------------
             Standard Nuclear Orientation (Angstroms)
    I     Atom           X                Y                Z
 ----------------------------------------------------------------
    1      Si      0.0000002088     0.0000004474    -0.0000002548
    2      H       1.3704115528    -0.5498671715     0.1576174787
    3      H      -0.9193527864    -1.0803348681    -0.4391934358
    4      H       0.0146111154     1.0815962624    -1.0174202697
    5      H      -0.4656728051     0.5485995141     1.2989997937
 ----------------------------------------------------------------
 Molecular Point Group                 C1    NOp =  1
 Largest Abelian Subgroup              C1    NOp =  1
 Nuclear Repulsion Energy =          21.26484779 hartrees
 There are        9 alpha and        9 beta electrons
 Requested basis set is def2-TZVP
 There are 29 shells and 61 basis functions

 Total QAlloc Memory Limit   2000 MB
 Mega-Array Size       188 MB
 MEM_STATIC part       192 MB
 A cutoff of  1.0D-10 yielded    435 shell pairs
 There are      1959 function pairs (      2313 Cartesian)
 Smallest overlap matrix eigenvalue = 1.01E-02

 Scale SEOQF with 1.000000e-01/1.000000e-01/1.000000e-01

 Standard Electronic Orientation quadrupole field applied
 Guess from superposition of atomic densities
 Warning:  Energy on first SCF cycle will be non-variational
 SAD guess density has 18.000000 electrons

 -----------------------------------------------------------------------
  General SCF calculation program by
  Eric Jon Sundstrom, Paul Horn, Yuezhi Mao, Dmitri Zuev, Alec White,
  David Stuck, Shaama M.S., Shane Yost, Joonho Lee, David Small,
  Daniel Levine, Susi Lehtola, Hugh Burton, Evgeny Epifanovsky
 -----------------------------------------------------------------------
 Exchange:     0.2700 Hartree-Fock + 1.0000 M06
 Correlation:  1.0000 M06
 Using SG-3 standard quadrature grid
 using 4 threads for integral computing
 -------------------------------------------------------
 OpenMP Integral computing Module                
 Release: version 2.0, May 2017, Q-Chem Inc. Pleasanton 
 -------------------------------------------------------
 A restricted SCF calculation will be
 performed using DIIS
 SCF converges when DIIS error is below 1.0e-07
 ---------------------------------------
  Cycle       Energy         DIIS error
 ---------------------------------------
    1    -291.7053332724      4.73e-02  
    2    -291.8701369414      2.53e-03  
    3    -291.8737563906      8.07e-04  
    4    -291.8740334556      4.76e-04  
    5    -291.8741140716      1.95e-05  
    6    -291.8741142322      8.35e-07  
    7    -291.8741142325      2.44e-07  
    8    -291.8741142327      4.83e-08  Convergence criterion met
 ---------------------------------------
 SCF time:   CPU 7.23s  wall 2.00s 
 SCF   energy in the final basis set =     -291.8741142327
 Total energy in the final basis set =     -291.8741142327
 
 --------------------------------------------------------------
 
                    Orbital Energies (a.u.)
 --------------------------------------------------------------
 
 Alpha MOs
 -- Occupied --
-66.2633  -5.3658  -3.6851  -3.6851  -3.6851  -0.5568  -0.3606  -0.3606
 -0.3606
 -- Virtual --
  0.0389   0.0389   0.0389   0.0614   0.1700   0.1700   0.1700   0.1927
  0.1927   0.2802   0.2876   0.2876   0.2877   0.4234   0.5538   0.5539
  0.5539   0.9037   0.9037   0.9037   0.9333   0.9334   1.0169   1.0170
  1.0171   1.0769   1.0769   1.0770   1.1752   1.3025   1.3025   1.3025
  1.8618   1.8620   1.8711   1.8714   1.8721   2.0575   2.0577   2.0579
  2.2199   2.3721   2.3735   2.3742   2.6515   2.8598   2.8643   2.8677
  6.1972   6.1972   6.1972  10.6966
 --------------------------------------------------------------
 
          Ground-State Mulliken Net Atomic Charges

     Atom                 Charge (a.u.)
  ----------------------------------------
      1 Si                    0.210361
      2 H                    -0.051957
      3 H                    -0.053064
      4 H                    -0.052906
      5 H                    -0.052435
  ----------------------------------------
  Sum of atomic charges =     0.000000

 -----------------------------------------------------------------
                    Cartesian Multipole Moments
 -----------------------------------------------------------------
    Charge (ESU x 10^10)
                -0.0000
    Dipole Moment (Debye)
         X      -0.0016      Y      -0.0001      Z      -0.0010
       Tot       0.0019
    Quadrupole Moments (Debye-Ang)
        XX     -16.4573     XY      -0.0010     YY     -16.4552
        XZ       0.0002     YZ       0.0001     ZZ     -16.4571
    Octopole Moments (Debye-Ang^2)
       XXX      -0.7805    XXY       0.8299    XYY       0.3549
       YYY      -0.0012    XXZ      -0.0943    XYZ       0.4090
       YYZ       0.5745    XZZ       0.4140    YZZ      -0.8287
       ZZZ      -0.4879
    Hexadecapole Moments (Debye-Ang^3)
      XXXX     -41.9780   XXXY      -0.0705   XXYY     -13.9654
      XYYY       0.1015   YYYY     -42.1239   XXXZ       0.0720
      XXYZ       0.0457   XYYZ       0.0391   YYYZ      -0.0630
      XXZZ     -14.0872   XYZZ      -0.0275   YYZZ     -13.9267
      XZZZ      -0.1091   YZZZ       0.0163   ZZZZ     -42.0100
 -----------------------------------------------------------------
 Calculating analytic gradient of the SCF energy
 Gradient of SCF Energy
            1           2           3           4           5
    1   0.0000481   0.0030799  -0.0021371   0.0000483  -0.0010392
    2  -0.0000271  -0.0011853  -0.0025207   0.0025221   0.0012109
    3   0.0000514   0.0003402  -0.0010192  -0.0023504   0.0029781
 Max gradient component =       3.080E-03
 RMS gradient           =       1.756E-03
 Gradient time:  CPU 2.72 s  wall 0.70 s
 Geometry Optimization Parameters
   NAtoms,    NIC,     NZ,  NCons,   NDum,   NFix, NCnnct, MaxDiis
        5      20       0       0       0       0       0       0


** GEOMETRY OPTIMIZATION IN DELOCALIZED INTERNAL COORDINATES **
   Searching for a Minimum

   Optimization Cycle:   1

                       Coordinates (Angstroms)
     ATOM                X               Y               Z
      1  Si        0.0000002088    0.0000004474   -0.0000002548
      2  H         1.3704115528   -0.5498671715    0.1576174787
      3  H        -0.9193527864   -1.0803348681   -0.4391934358
      4  H         0.0146111154    1.0815962624   -1.0174202697
      5  H        -0.4656728051    0.5485995141    1.2989997937
   Point Group: c1    Number of degrees of freedom:     9


   Energy is   -291.874114233


 Attempting to generate delocalized internal coordinates
 Initial Hessian constructed with Jon Baker's OPTIMIZE code

  9 Hessian modes will be used to form the next step
  Hessian Eigenvalues:
     0.160000    0.160000    0.160000    0.160000    0.160000    0.175393
     0.175393    0.175395    0.175396

 Minimum search - taking simple RFO step
 Searching for Lamda that Minimizes Along All modes
 Value Taken    Lamda =  -0.00026383
 Step Taken.  Stepsize is  0.038726

                             Maximum     Tolerance    Cnvgd?
         Gradient           0.006801      0.000300      NO
         Displacement       0.038716      0.001200      NO
         Energy change     *********      0.000001      NO


 New Cartesian Coordinates Obtained by Inverse Iteration

 Displacement from previous Coordinates is:  0.038736
 ----------------------------------------------------------------
             Standard Nuclear Orientation (Angstroms)
    I     Atom           X                Y                Z
 ----------------------------------------------------------------
    1      Si      0.0000842949     0.0000405888     0.0000211050
    2      H       1.3611619900    -0.5464275645     0.1564974257
    3      H      -0.9128116263    -1.0726748106    -0.4362059532
    4      H       0.0142042500     1.0740660109    -1.0102939501
    5      H      -0.4626416231     0.5449899596     1.2899846847
 ----------------------------------------------------------------
 Molecular Point Group                 C1    NOp =  1
 Largest Abelian Subgroup              C1    NOp =  1
 Nuclear Repulsion Energy =          21.41255589 hartrees
 There are        9 alpha and        9 beta electrons
 Applying Cartesian multipole field
    Component          Value
    ---------          -----
     (2,0,0)        1.00000E-11
     (0,2,0)        2.00000E-11
     (0,0,2)       -3.00000E-11
 Requested basis set is def2-TZVP
 There are 29 shells and 61 basis functions
 A cutoff of  1.0D-10 yielded    435 shell pairs
 There are      1959 function pairs (      2313 Cartesian)
 Smallest overlap matrix eigenvalue = 9.83E-03
 Guess MOs from SCF MO coefficient file

 -----------------------------------------------------------------------
  General SCF calculation program by
  Eric Jon Sundstrom, Paul Horn, Yuezhi Mao, Dmitri Zuev, Alec White,
  David Stuck, Shaama M.S., Shane Yost, Joonho Lee, David Small,
  Daniel Levine, Susi Lehtola, Hugh Burton, Evgeny Epifanovsky
 -----------------------------------------------------------------------
 Exchange:     0.2700 Hartree-Fock + 1.0000 M06
 Correlation:  1.0000 M06
 Using SG-3 standard quadrature grid
 using 4 threads for integral computing
 -------------------------------------------------------
 OpenMP Integral computing Module                
 Release: version 2.0, May 2017, Q-Chem Inc. Pleasanton 
 -------------------------------------------------------
 A restricted SCF calculation will be
 performed using DIIS
 SCF converges when DIIS error is below 1.0e-07
 ---------------------------------------
  Cycle       Energy         DIIS error
 ---------------------------------------
    1    -291.8742091674      2.48e-04  
    2    -291.8742317466      3.98e-05  
    3    -291.8742326181      2.65e-05  
    4    -291.8742329418      2.80e-06  
    5    -291.8742329440      3.03e-07  
    6    -291.8742329439      4.24e-08  Convergence criterion met
 ---------------------------------------
 SCF time:   CPU 5.47s  wall 1.00s 
 SCF   energy in the final basis set =     -291.8742329439
 Total energy in the final basis set =     -291.8742329439
 
 --------------------------------------------------------------
 
                    Orbital Energies (a.u.)
 --------------------------------------------------------------
 
 Alpha MOs
 -- Occupied --
-66.2600  -5.3634  -3.6826  -3.6826  -3.6826  -0.5584  -0.3615  -0.3615
 -0.3614
 -- Virtual --
  0.0396   0.0397   0.0397   0.0638   0.1702   0.1703   0.1703   0.1929
  0.1930   0.2820   0.2878   0.2878   0.2878   0.4271   0.5570   0.5571
  0.5571   0.9051   0.9052   0.9053   0.9337   0.9337   1.0204   1.0206
  1.0207   1.0775   1.0776   1.0777   1.1730   1.3029   1.3029   1.3030
  1.8693   1.8694   1.8779   1.8784   1.8793   2.0655   2.0657   2.0659
  2.2304   2.3845   2.3864   2.3873   2.6589   2.8641   2.8687   2.8721
  6.2057   6.2058   6.2058  10.7384
 --------------------------------------------------------------
 
          Ground-State Mulliken Net Atomic Charges

     Atom                 Charge (a.u.)
  ----------------------------------------
      1 Si                    0.213336
      2 H                    -0.052676
      3 H                    -0.053832
      4 H                    -0.053653
      5 H                    -0.053175
  ----------------------------------------
  Sum of atomic charges =     0.000000

 -----------------------------------------------------------------
                    Cartesian Multipole Moments
 -----------------------------------------------------------------
    Charge (ESU x 10^10)
                -0.0000
    Dipole Moment (Debye)
         X      -0.0014      Y       0.0002      Z      -0.0011
       Tot       0.0018
    Quadrupole Moments (Debye-Ang)
        XX     -16.4117     XY      -0.0010     YY     -16.4094
        XZ       0.0002     YZ      -0.0000     ZZ     -16.4113
    Octopole Moments (Debye-Ang^2)
       XXX      -0.7944    XXY       0.8404    XYY       0.3584
       YYY      -0.0019    XXZ      -0.0960    XYZ       0.4143
       YYZ       0.5815    XZZ       0.4180    YZZ      -0.8398
       ZZZ      -0.4962
    Hexadecapole Moments (Debye-Ang^3)
      XXXX     -41.5390   XXXY      -0.0568   XXYY     -13.8205
      XYYY       0.0942   YYYY     -41.6604   XXXZ       0.0633
      XXYZ       0.0399   XYYZ       0.0345   YYYZ      -0.0566
      XXZZ     -13.9277   XYZZ      -0.0226   YYZZ     -13.7857
      XZZZ      -0.0959   YZZZ       0.0129   ZZZZ     -41.5603
 -----------------------------------------------------------------
 Calculating analytic gradient of the SCF energy
 Gradient of SCF Energy
            1           2           3           4           5
    1  -0.0000232  -0.0003191   0.0002366  -0.0000142   0.0001199
    2  -0.0000057   0.0001606   0.0002673  -0.0002585  -0.0001637
    3  -0.0000129  -0.0000594   0.0001055   0.0002673  -0.0003005
 Max gradient component =       3.191E-04
 RMS gradient           =       1.898E-04
 Gradient time:  CPU 2.50 s  wall 0.64 s
 Geometry Optimization Parameters
   NAtoms,    NIC,     NZ,  NCons,   NDum,   NFix, NCnnct, MaxDiis
        5      20       0       0       0       0       0       0

 Cartesian Hessian Update
 Hessian updated using BFGS update


** GEOMETRY OPTIMIZATION IN DELOCALIZED INTERNAL COORDINATES **
   Searching for a Minimum

   Optimization Cycle:   2

                       Coordinates (Angstroms)
     ATOM                X               Y               Z
      1  Si        0.0000842949    0.0000405888    0.0000211050
      2  H         1.3611619900   -0.5464275645    0.1564974257
      3  H        -0.9128116263   -1.0726748106   -0.4362059532
      4  H         0.0142042500    1.0740660109   -1.0102939501
      5  H        -0.4626416231    0.5449899596    1.2899846847
   Point Group: c1    Number of degrees of freedom:     9


   Energy is   -291.874232944

 Hessian updated using BFGS update

  6 Hessian modes will be used to form the next step
  Hessian Eigenvalues:
     0.159956    0.160000    0.175393    0.175394    0.175395    0.194612

 Minimum search - taking simple RFO step
 Searching for Lamda that Minimizes Along All modes
 Value Taken    Lamda =  -0.00000276
 Step Taken.  Stepsize is  0.003768

                             Maximum     Tolerance    Cnvgd?
         Gradient           0.000732      0.000300      NO
         Displacement       0.003763      0.001200      NO
         Energy change     -0.000119      0.000001      NO


 New Cartesian Coordinates Obtained by Inverse Iteration

 Displacement from previous Coordinates is:  0.003774
 ----------------------------------------------------------------
             Standard Nuclear Orientation (Angstroms)
    I     Atom           X                Y                Z
 ----------------------------------------------------------------
    1      Si      0.0001246523     0.0000535124     0.0000319918
    2      H       1.3620631008    -0.5468818207     0.1566222165
    3      H      -0.9133759238    -1.0734079429    -0.4365149572
    4      H       0.0141375068     1.0748304316    -1.0109599512
    5      H      -0.4629520506     0.5454000038     1.2908240121
 ----------------------------------------------------------------
 Molecular Point Group                 C1    NOp =  1
 Largest Abelian Subgroup              C1    NOp =  1
 Nuclear Repulsion Energy =          21.39810923 hartrees
 There are        9 alpha and        9 beta electrons
 Applying Cartesian multipole field
    Component          Value
    ---------          -----
     (2,0,0)        1.00000E-11
     (0,2,0)        2.00000E-11
     (0,0,2)       -3.00000E-11
 Requested basis set is def2-TZVP
 There are 29 shells and 61 basis functions
 A cutoff of  1.0D-10 yielded    435 shell pairs
 There are      1959 function pairs (      2313 Cartesian)
 Smallest overlap matrix eigenvalue = 9.86E-03
 Guess MOs from SCF MO coefficient file

 -----------------------------------------------------------------------
  General SCF calculation program by
  Eric Jon Sundstrom, Paul Horn, Yuezhi Mao, Dmitri Zuev, Alec White,
  David Stuck, Shaama M.S., Shane Yost, Joonho Lee, David Small,
  Daniel Levine, Susi Lehtola, Hugh Burton, Evgeny Epifanovsky
 -----------------------------------------------------------------------
 Exchange:     0.2700 Hartree-Fock + 1.0000 M06
 Correlation:  1.0000 M06
 Using SG-3 standard quadrature grid
 using 4 threads for integral computing
 -------------------------------------------------------
 OpenMP Integral computing Module                
 Release: version 2.0, May 2017, Q-Chem Inc. Pleasanton 
 -------------------------------------------------------
 A restricted SCF calculation will be
 performed using DIIS
 SCF converges when DIIS error is below 1.0e-07
 ---------------------------------------
  Cycle       Energy         DIIS error
 ---------------------------------------
    1    -291.8742340667      2.44e-05  
    2    -291.8742342821      3.88e-06  
    3    -291.8742342903      2.59e-06  
    4    -291.8742342931      2.79e-07  
    5    -291.8742342939      2.98e-08  Convergence criterion met
 ---------------------------------------
 SCF time:   CPU 4.44s  wall 1.00s 
 SCF   energy in the final basis set =     -291.8742342939
 Total energy in the final basis set =     -291.8742342939
 
 --------------------------------------------------------------
 
                    Orbital Energies (a.u.)
 --------------------------------------------------------------
 
 Alpha MOs
 -- Occupied --
-66.2603  -5.3636  -3.6829  -3.6829  -3.6829  -0.5583  -0.3614  -0.3614
 -0.3613
 -- Virtual --
  0.0396   0.0396   0.0396   0.0636   0.1702   0.1703   0.1703   0.1929
  0.1930   0.2819   0.2877   0.2878   0.2878   0.4268   0.5567   0.5567
  0.5568   0.9050   0.9051   0.9051   0.9336   0.9337   1.0201   1.0202
  1.0203   1.0775   1.0776   1.0776   1.1732   1.3028   1.3029   1.3029
  1.8685   1.8687   1.8772   1.8777   1.8786   2.0647   2.0649   2.0652
  2.2294   2.3832   2.3852   2.3861   2.6581   2.8637   2.8682   2.8717
  6.2048   6.2049   6.2050  10.7343
 --------------------------------------------------------------
 
          Ground-State Mulliken Net Atomic Charges

     Atom                 Charge (a.u.)
  ----------------------------------------
      1 Si                    0.213046
      2 H                    -0.052603
      3 H                    -0.053761
      4 H                    -0.053579
      5 H                    -0.053102
  ----------------------------------------
  Sum of atomic charges =     0.000000

 -----------------------------------------------------------------
                    Cartesian Multipole Moments
 -----------------------------------------------------------------
    Charge (ESU x 10^10)
                -0.0000
    Dipole Moment (Debye)
         X      -0.0012      Y       0.0002      Z      -0.0010
       Tot       0.0016
    Quadrupole Moments (Debye-Ang)
        XX     -16.4161     XY      -0.0010     YY     -16.4139
        XZ       0.0002     YZ      -0.0000     ZZ     -16.4157
    Octopole Moments (Debye-Ang^2)
       XXX      -0.7943    XXY       0.8392    XYY       0.3577
       YYY      -0.0022    XXZ      -0.0959    XYZ       0.4138
       YYZ       0.5808    XZZ       0.4171    YZZ      -0.8388
       ZZZ      -0.4957
    Hexadecapole Moments (Debye-Ang^3)
      XXXX     -41.5810   XXXY      -0.0571   XXYY     -13.8346
      XYYY       0.0958   YYYY     -41.7069   XXXZ       0.0637
      XXYZ       0.0405   XYYZ       0.0349   YYYZ      -0.0573
      XXZZ     -13.9428   XYZZ      -0.0228   YYZZ     -13.7995
      XZZZ      -0.0975   YZZZ       0.0130   ZZZZ     -41.6032
 -----------------------------------------------------------------
 Calculating analytic gradient of the SCF energy
 Gradient of SCF Energy
            1           2           3           4           5
    1  -0.0000066   0.0000186   0.0000039  -0.0000179   0.0000020
    2  -0.0000023   0.0000167  -0.0000092   0.0000194  -0.0000247
    3  -0.0000012  -0.0000189  -0.0000080   0.0000083   0.0000197
 Max gradient component =       2.470E-05
 RMS gradient           =       1.406E-05
 Gradient time:  CPU 2.48 s  wall 0.64 s
 Geometry Optimization Parameters
   NAtoms,    NIC,     NZ,  NCons,   NDum,   NFix, NCnnct, MaxDiis
        5      20       0       0       0       0       0       0

 Cartesian Hessian Update
 Hessian updated using BFGS update


** GEOMETRY OPTIMIZATION IN DELOCALIZED INTERNAL COORDINATES **
   Searching for a Minimum

   Optimization Cycle:   3

                       Coordinates (Angstroms)
     ATOM                X               Y               Z
      1  Si        0.0001246523    0.0000535124    0.0000319918
      2  H         1.3620631008   -0.5468818207    0.1566222165
      3  H        -0.9133759238   -1.0734079429   -0.4365149572
      4  H         0.0141375068    1.0748304316   -1.0109599512
      5  H        -0.4629520506    0.5454000038    1.2908240121
   Point Group: c1    Number of degrees of freedom:     9


   Energy is   -291.874234294

 Hessian updated using BFGS update

  7 Hessian modes will be used to form the next step
  Hessian Eigenvalues:
     0.159509    0.159999    0.160000    0.175384    0.175394    0.175395
     0.199134

 Minimum search - taking simple RFO step
 Searching for Lamda that Minimizes Along All modes
 Value Taken    Lamda =   0.00000000
 Step Taken.  Stepsize is  0.000116

                             Maximum     Tolerance    Cnvgd?
         Gradient           0.000016      0.000300     YES
         Displacement       0.000077      0.001200     YES
         Energy change     -0.000001      0.000001      NO


                       Distance Matrix (Angstroms)
             Si(  1)   H (  2)   H (  3)   H (  4)
   H (  2)  1.475986
   H (  3)  1.475593  2.409702
   H (  4)  1.475617  2.410415  2.409398
   H (  5)  1.475800  2.410430  2.409797  2.409589
 
 Final energy is   -291.874234293854     


 ******************************
 **  OPTIMIZATION CONVERGED  **
 ******************************

                       Coordinates (Angstroms)
     ATOM                X               Y               Z
      1  Si        0.0001246523    0.0000535124    0.0000319918
      2  H         1.3620631008   -0.5468818207    0.1566222165
      3  H        -0.9133759238   -1.0734079429   -0.4365149572
      4  H         0.0141375068    1.0748304316   -1.0109599512
      5  H        -0.4629520506    0.5454000038    1.2908240121

Z-matrix Print:
$molecule
0 1
Si
H  1 1.475593
H  1 1.475617 2 109.454005
H  1 1.475800 2 109.470805 3 119.970004 0
H  1 1.475986 2 109.454239 3 -120.015404 0
$end

 
 --------------------------------------------------------------
 
                    Orbital Energies (a.u.)
 --------------------------------------------------------------
 
 Alpha MOs
 -- Occupied --
-66.2603  -5.3636  -3.6829  -3.6829  -3.6829  -0.5583  -0.3614  -0.3614
 -0.3613
 -- Virtual --
  0.0396   0.0396   0.0396   0.0636   0.1702   0.1703   0.1703   0.1929
  0.1930   0.2819   0.2877   0.2878   0.2878   0.4268   0.5567   0.5567
  0.5568   0.9050   0.9051   0.9051   0.9336   0.9337   1.0201   1.0202
  1.0203   1.0775   1.0776   1.0776   1.1732   1.3028   1.3029   1.3029
  1.8685   1.8687   1.8772   1.8777   1.8786   2.0647   2.0649   2.0652
  2.2294   2.3832   2.3852   2.3861   2.6581   2.8637   2.8682   2.8717
  6.2048   6.2049   6.2050  10.7343
 --------------------------------------------------------------
 
          Ground-State Mulliken Net Atomic Charges

     Atom                 Charge (a.u.)
  ----------------------------------------
      1 Si                    0.213046
      2 H                    -0.052603
      3 H                    -0.053761
      4 H                    -0.053579
      5 H                    -0.053102
  ----------------------------------------
  Sum of atomic charges =     0.000000

 -----------------------------------------------------------------
                    Cartesian Multipole Moments
 -----------------------------------------------------------------
    Charge (ESU x 10^10)
                -0.0000
    Dipole Moment (Debye)
         X      -0.0012      Y       0.0002      Z      -0.0010
       Tot       0.0016
    Quadrupole Moments (Debye-Ang)
        XX     -16.4161     XY      -0.0010     YY     -16.4139
        XZ       0.0002     YZ      -0.0000     ZZ     -16.4157
    Octopole Moments (Debye-Ang^2)
       XXX      -0.7943    XXY       0.8392    XYY       0.3577
       YYY      -0.0022    XXZ      -0.0959    XYZ       0.4138
       YYZ       0.5808    XZZ       0.4171    YZZ      -0.8388
       ZZZ      -0.4957
    Hexadecapole Moments (Debye-Ang^3)
      XXXX     -41.5810   XXXY      -0.0571   XXYY     -13.8346
      XYYY       0.0958   YYYY     -41.7069   XXXZ       0.0637
      XXYZ       0.0405   XYYZ       0.0349   YYYZ      -0.0573
      XXZZ     -13.9428   XYZZ      -0.0228   YYZZ     -13.7995
      XZZZ      -0.0975   YZZZ       0.0130   ZZZZ     -41.6032
 -----------------------------------------------------------------
Archival summary:
1\1\gadi-cpu-clx-0263.gadi.nci.org.au\OPT\ProcedureUnspecified\BasisUnspecified\i14\pk8622\TueJun2321:56:242020TueJun2321:56:242020\0\\#,OPT,ProcedureUnspecified,BasisUnspecified,\\0,1\Si\H,1,1.47559\H,1,1.47562,2,109.454\H,1,1.4758,2,109.471,3,119.97,0\H,1,1.47599,2,109.454,3,-120.015,0\\\@

 Total job time:  6.69s(wall), 26.01s(cpu) 
 Tue Jun 23 21:56:24 2020

        *************************************************************
        *                                                           *
        *  Thank you very much for using Q-Chem.  Have a nice day.  *
        *                                                           *
        *************************************************************


 
User input: 2 of 2 
 
                  Welcome to Q-Chem
     A Quantum Leap Into The Future Of Chemistry


 Q-Chem 5.2 (devel), Q-Chem, Inc., Pleasanton, CA (2019)

 Yihan Shao,  Zhengting Gan,  E. Epifanovsky,  A. T. B. Gilbert,  M. Wormit,  
 J. Kussmann,  A. W. Lange,  A. Behn,  Jia Deng,  Xintian Feng,  D. Ghosh,  
 M. Goldey,  P. R. Horn,  L. D. Jacobson,  I. Kaliman,  T. Kus,  A. Landau,  
 Jie Liu,  E. I. Proynov,  R. M. Richard,  R. P. Steele,  E. J. Sundstrom,  
 H. L. Woodcock III,  P. M. Zimmerman,  D. Zuev,  B. Albrecht,  E. Alguire,  
 S. A. Baeppler,  D. Barton,  Z. Benda,  Y. A. Bernard,  E. J. Berquist,  
 K. B. Bravaya,  H. Burton,  D. Casanova,  Chun-Min Chang,  Yunqing Chen,  
 A. Chien,  K. D. Closser,  M. P. Coons,  S. Coriani,  S. Dasgupta,  
 A. L. Dempwolff,  M. Diedenhofen,  Hainam Do,  R. G. Edgar,  Po-Tung Fang,  
 S. Faraji,  S. Fatehi,  Qingguo Feng,  K. D. Fenk,  J. Fosso-Tande,  
 J. Gayvert,  Qinghui Ge,  A. Ghysels,  G. Gidofalvi,  J. Gomes,  
 J. Gonthier,  A. Gunina,  D. Hait,  M. W. D. Hanson-Heine,  
 P. H. P. Harbach,  A. W. Hauser,  M. F. Herbst,  J. E. Herr,  
 E. G. Hohenstein,  Z. C. Holden,  Kerwin Hui,  B. C. Huynh,  T.-C. Jagau,  
 Hyunjun Ji,  B. Kaduk,  K. Khistyaev,  Jaehoon Kim,  P. Klunzinger,  K. Koh,  
 D. Kosenkov,  L. Koulias,  T. Kowalczyk,  C. M. Krauter,  A. Kunitsa,  
 Ka Un Lao,  A. Laurent,  K. V. Lawler,  Joonho Lee,  D. Lefrancois,  
 S. Lehtola,  D. S. Levine,  Yi-Pei Li,  You-Sheng Lin,  Fenglai Liu,  
 E. Livshits,  A. Luenser,  P. Manohar,  E. Mansoor,  S. F. Manzer,  
 Shan-Ping Mao,  Yuezhi Mao,  N. Mardirossian,  A. V. Marenich,  
 T. Markovich,  L. A. Martinez-Martinez,  S. A. Maurer,  N. J. Mayhall,  
 S. C. McKenzie,  J.-M. Mewes,  P. Morgante,  A. F. Morrison,  
 J. W. Mullinax,  K. Nanda,  T. S. Nguyen-Beck,  R. Olivares-Amaya,  
 J. A. Parkhill,  Zheng Pei,  T. M. Perrine,  F. Plasser,  P. Pokhilko,  
 S. Prager,  A. Prociuk,  E. Ramos,  D. R. Rehn,  F. Rob,  M. Scheurer,  
 M. Schneider,  N. Sergueev,  S. M. Sharada,  S. Sharma,  D. W. Small,  
 T. Stauch,  T. Stein,  Yu-Chuan Su,  A. J. W. Thom,  A. Tkatchenko,  
 T. Tsuchimochi,  N. M. Tubman,  L. Vogt,  M. L. Vidal,  O. Vydrov,  
 M. A. Watson,  J. Wenzel,  M. de Wergifosse,  T. A. Wesolowski,  A. White,  
 J. Witte,  A. Yamada,  Jun Yang,  K. Yao,  S. Yeganeh,  S. R. Yost,  
 Zhi-Qiang You,  A. Zech,  Igor Ying Zhang,  Xing Zhang,  Yan Zhao,  
 Ying Zhu,  B. R. Brooks,  G. K. L. Chan,  C. J. Cramer,  M. S. Gordon,  
 W. J. Hehre,  A. Klamt,  M. W. Schmidt,  C. D. Sherrill,  D. G. Truhlar,  
 A. Aspuru-Guzik,  R. Baer,  A. T. Bell,  N. A. Besley,  Jeng-Da Chai,  
 A. E. DePrince, III,  R. A. DiStasio Jr.,  A. Dreuw,  B. D. Dunietz,  
 T. R. Furlani,  Chao-Ping Hsu,  Yousung Jung,  Jing Kong,  D. S. Lambrecht,  
 WanZhen Liang,  C. Ochsenfeld,  V. A. Rassolov,  L. V. Slipchenko,  
 J. E. Subotnik,  T. Van Voorhis,  J. M. Herbert,  A. I. Krylov,  
 P. M. W. Gill,  M. Head-Gordon

 Contributors to earlier versions of Q-Chem not listed above: 
 R. D. Adamson,  B. Austin,  J. Baker,  G. J. O. Beran,  K. Brandhorst,  
 S. T. Brown,  E. F. C. Byrd,  A. K. Chakraborty,  C.-L. Cheng,  
 Siu Hung Chien,  D. M. Chipman,  D. L. Crittenden,  H. Dachsel,  
 R. J. Doerksen,  A. D. Dutoi,  L. Fusti-Molnar,  W. A. Goddard III,  
 A. Golubeva-Zadorozhnaya,  S. R. Gwaltney,  G. Hawkins,  A. Heyden,  
 S. Hirata,  G. Kedziora,  F. J. Keil,  C. Kelley,  Jihan Kim,  R. A. King,  
 R. Z. Khaliullin,  P. P. Korambath,  W. Kurlancheek,  A. M. Lee,  M. S. Lee,  
 S. V. Levchenko,  Ching Yeh Lin,  D. Liotard,  R. C. Lochan,  I. Lotan,  
 P. E. Maslen,  N. Nair,  D. P. O'Neill,  D. Neuhauser,  E. Neuscamman,  
 C. M. Oana,  R. Olson,  B. Peters,  R. Peverati,  P. A. Pieniazek,  
 Y. M. Rhee,  J. Ritchie,  M. A. Rohrdanz,  E. Rosta,  N. J. Russ,  
 H. F. Schaefer III,  N. E. Schultz,  N. Shenvi,  A. C. Simmonett,  A. Sodt,  
 D. Stuck,  K. S. Thanthiriwatte,  V. Vanovschi,  Tao Wang,  A. Warshel,  
 C. F. Williams,  Q. Wu,  X. Xu,  W. Zhang

 Please cite Q-Chem as follows:
 Y. Shao et al., Mol. Phys. 113, 184-215 (2015)
 DOI: 10.1080/00268976.2014.952696

 Q-Chem 5.2.0 for Intel X86 EM64T Linux

 Parts of Q-Chem use Armadillo 8.300.2 (Tropical Shenanigans).
 http://arma.sourceforge.net/

 Q-Chem begins on Tue Jun 23 21:56:24 2020  

Host: gadi-cpu-clx-0263.gadi.nci.org.au
0

     Scratch files written to /jobfs/7626483.gadi-pbs/qchem39277//
NAlpha2: 18
NElect   18
Mult     1
The previous job contains 0 fragments, simply inherited here

Checking the input file for inconsistencies... 	...done.

--------------------------------------------------------------
User input:
--------------------------------------------------------------

$molecule
	READ
$end

$rem
	JOBTYPE	FREQ
	METHOD	M06
	BASIS	def2-TZVP
	ANHAR	TRUE
	SCF_CONVERGENCE	7
	VCI	4
$end
--------------------------------------------------------------
 ----------------------------------------------------------------
             Standard Nuclear Orientation (Angstroms)
    I     Atom           X                Y                Z
 ----------------------------------------------------------------
    1      Si      0.0000132189    -0.0000183525     0.0000316899
    2      H       1.3374969964    -0.3665948366     0.5052978780
    3      H       0.1418068489     0.7856002642    -1.2409654869
    4      H      -0.7057117292     0.8065467811     1.0143548522
    5      H      -0.7737771803    -1.2252952738    -0.2791309017
 ----------------------------------------------------------------
 Molecular Point Group                 C1    NOp =  1
 Largest Abelian Subgroup              C1    NOp =  1
 Nuclear Repulsion Energy =          21.39810923 hartrees
 There are        9 alpha and        9 beta electrons
 Requested basis set is def2-TZVP
 There are 29 shells and 61 basis functions

 Total QAlloc Memory Limit   2000 MB
 Mega-Array Size       188 MB
 MEM_STATIC part       192 MB

                       Distance Matrix (Angstroms)
             Si(  1)   H (  2)   H (  3)   H (  4)
   H (  2)  1.475986
   H (  3)  1.475593  2.409702
   H (  4)  1.475617  2.410415  2.409398
   H (  5)  1.475800  2.410430  2.409797  2.409589
 
 A cutoff of  1.0D-10 yielded    435 shell pairs
 There are      1959 function pairs (      2313 Cartesian)
 Smallest overlap matrix eigenvalue = 9.86E-03
 Guess from superposition of atomic densities
 Warning:  Energy on first SCF cycle will be non-variational
 SAD guess density has 18.000000 electrons

 -----------------------------------------------------------------------
  General SCF calculation program by
  Eric Jon Sundstrom, Paul Horn, Yuezhi Mao, Dmitri Zuev, Alec White,
  David Stuck, Shaama M.S., Shane Yost, Joonho Lee, David Small,
  Daniel Levine, Susi Lehtola, Hugh Burton, Evgeny Epifanovsky
 -----------------------------------------------------------------------
 Exchange:     0.2700 Hartree-Fock + 1.0000 M06
 Correlation:  1.0000 M06
 Using SG-3 standard quadrature grid
 using 4 threads for integral computing
 -------------------------------------------------------
 OpenMP Integral computing Module                
 Release: version 2.0, May 2017, Q-Chem Inc. Pleasanton 
 -------------------------------------------------------
 A restricted SCF calculation will be
 performed using DIIS
 SCF converges when DIIS error is below 1.0e-07
 ---------------------------------------
  Cycle       Energy         DIIS error
 ---------------------------------------
    1    -291.7159857285      4.82e-02  
    2    -291.8700928779      2.57e-03  
    3    -291.8738521918      8.50e-04  
    4    -291.8741587703      4.85e-04  
    5    -291.8742405326      1.96e-05  
    6    -291.8742406966      7.86e-07  
    7    -291.8742406971      2.14e-07  
    8    -291.8742406966      4.89e-08  Convergence criterion met
 ---------------------------------------
 SCF time:   CPU 7.24s  wall 2.00s 
 SCF   energy in the final basis set =     -291.8742406966
 Total energy in the final basis set =     -291.8742406966
 
 --------------------------------------------------------------
 
                    Orbital Energies (a.u.)
 --------------------------------------------------------------
 
 Alpha MOs
 -- Occupied --
-66.2603  -5.3636  -3.6829  -3.6829  -3.6829  -0.5583  -0.3615  -0.3614
 -0.3613
 -- Virtual --
  0.0395   0.0396   0.0396   0.0636   0.1702   0.1702   0.1703   0.1929
  0.1929   0.2819   0.2877   0.2877   0.2878   0.4268   0.5567   0.5567
  0.5568   0.9050   0.9051   0.9052   0.9336   0.9337   1.0201   1.0202
  1.0203   1.0775   1.0776   1.0776   1.1732   1.3028   1.3029   1.3029
  1.8686   1.8688   1.8774   1.8781   1.8783   2.0647   2.0650   2.0653
  2.2294   2.3838   2.3849   2.3864   2.6591   2.8650   2.8682   2.8728
  6.2048   6.2049   6.2050  10.7343
 --------------------------------------------------------------
 
          Ground-State Mulliken Net Atomic Charges

     Atom                 Charge (a.u.)
  ----------------------------------------
      1 Si                    0.213364
      2 H                    -0.052779
      3 H                    -0.053243
      4 H                    -0.053983
      5 H                    -0.053359
  ----------------------------------------
  Sum of atomic charges =     0.000000

 -----------------------------------------------------------------
                    Cartesian Multipole Moments
 -----------------------------------------------------------------
    Charge (ESU x 10^10)
                -0.0000
    Dipole Moment (Debye)
         X      -0.0013      Y       0.0004      Z       0.0013
       Tot       0.0019
    Quadrupole Moments (Debye-Ang)
        XX     -16.4154     XY      -0.0002     YY     -16.4142
        XZ       0.0005     YZ      -0.0004     ZZ     -16.4157
    Octopole Moments (Debye-Ang^2)
       XXX      -0.7503    XXY       0.4550    XYY       0.6331
       YYY       0.4183    XXZ      -0.5695    XYZ       0.5737
       YYZ       0.2143    XZZ       0.1055    YZZ      -0.8683
       ZZZ       0.3613
    Hexadecapole Moments (Debye-Ang^3)
      XXXX     -41.6265   XXXY      -0.0620   XXYY     -13.8466
      XYYY       0.1101   YYYY     -41.6811   XXXZ       0.1006
      XXYZ       0.0284   XYYZ      -0.0176   YYYZ       0.0449
      XXZZ     -13.8914   XYZZ      -0.0494   YYZZ     -13.8117
      XZZZ      -0.0883   YZZZ      -0.0697   ZZZZ     -41.6327
 -----------------------------------------------------------------
 Calculating MO derivatives via CPSCF
    1     0    18    0.0330201  
    2     0    18    0.0051109  
    3     0    18    0.0003915  
    4     1    17    0.0000146  
    5    18     0    0.0000006  Converged
 Time for AOints: 0.7 s (CPU) 0.2 s (wall)
 ------------------------------------------------------------------------------
                     AOints        : Timing summary (seconds)
 ------------------------------------------------------------------------------
     job step          cpu (% of tot)      sys (% of tot)     wall (% of tot)
 ------------------------------------------------------------------------------
  AOints            0.6629E+00 ( 2.9)   0.5000E-05 (25.0)   0.1801E+00 ( 3.1)
 ------------------------------------------------------------------------------
   Grand Totals     0.2325E+02          0.2000E-04          0.5853E+01
 ------------------------------------------------------------------------------
 Polarizability Matrix (a.u.)
            1           2           3
    1 -27.9782196  -0.0023680  -0.0032649
    2  -0.0023680 -27.9673753   0.0031738
    3  -0.0032649   0.0031738 -27.9644208
 Calculating analytic Hessian of the SCF energy
 
 Direct stationary perturbation theory relativistic correction:
 
 rels  =       0.336168054986
 relv  =      -1.195464666955
 rel2e =       0.261041778162
 E_rel =      -0.598254833807
 
 Hessian of the SCF Energy
            1           2           3           4           5           6
    1   0.3137959   0.0002375   0.0002392  -0.1538522   0.0349709  -0.0482542
    2   0.0002375   0.3133481  -0.0002543   0.0349785  -0.0363424   0.0133068
    3   0.0002392  -0.0002543   0.3133189  -0.0482778   0.0133042  -0.0451115
    4  -0.1538522   0.0349785  -0.0482778   0.1614183  -0.0386218   0.0533097
    5   0.0349709  -0.0363424   0.0133042  -0.0386218   0.0315447  -0.0146823
    6  -0.0482542   0.0133068  -0.0451115   0.0533097  -0.0146823   0.0412149
    7  -0.0280586  -0.0080613   0.0125482   0.0028807   0.0068587  -0.0108022
    8  -0.0080434  -0.0707043   0.0693330   0.0001595   0.0000754   0.0034782
    9   0.0125254   0.0693414  -0.1360714  -0.0002819   0.0031216  -0.0026021
   10  -0.0622579   0.0404011   0.0508709  -0.0049005   0.0073708   0.0085844
   11   0.0403700  -0.0729498  -0.0580135   0.0023998   0.0000089  -0.0024842
   12   0.0508532  -0.0580391  -0.0997647  -0.0018115   0.0022545   0.0052832
   13  -0.0696271  -0.0675558  -0.0153805  -0.0055462  -0.0105786  -0.0028376
   14  -0.0675350  -0.1333517  -0.0243694   0.0010839   0.0047133   0.0003815
   15  -0.0153635  -0.0243548  -0.0323713  -0.0029385  -0.0039980   0.0012155
            7           8           9          10          11          12
    1  -0.0280586  -0.0080434   0.0125254  -0.0622579   0.0403700   0.0508532
    2  -0.0080613  -0.0707043   0.0693414   0.0404011  -0.0729498  -0.0580391
    3   0.0125482   0.0693330  -0.1360714   0.0508709  -0.0580135  -0.0997647
    4   0.0028807   0.0001595  -0.0002819  -0.0049005   0.0023998  -0.0018115
    5   0.0068587   0.0000754   0.0031216   0.0073708   0.0000089   0.0022545
    6  -0.0108022   0.0034782  -0.0026021   0.0085844  -0.0024842   0.0052832
    7   0.0224307   0.0088823  -0.0138601   0.0014193  -0.0033480   0.0059848
    8   0.0088823   0.0694934  -0.0766415   0.0007102   0.0061069  -0.0060922
    9  -0.0138601  -0.0766415   0.1417832   0.0015458   0.0048254  -0.0071485
   10   0.0014193   0.0007102   0.0015458   0.0601668  -0.0446167  -0.0562233
   11  -0.0033480   0.0061069   0.0048254  -0.0446167   0.0720117   0.0641521
   12   0.0059848  -0.0060922  -0.0071485  -0.0562233   0.0641521   0.1016550
   13   0.0013280  -0.0017085   0.0000708   0.0055723   0.0051949   0.0011968
   14  -0.0043315  -0.0049714  -0.0006469  -0.0038654  -0.0051777  -0.0022753
   15   0.0061292   0.0099225   0.0040388  -0.0047778  -0.0084798  -0.0000249
           13          14          15
    1  -0.0696271  -0.0675350  -0.0153635
    2  -0.0675558  -0.1333517  -0.0243548
    3  -0.0153805  -0.0243694  -0.0323713
    4  -0.0055462   0.0010839  -0.0029385
    5  -0.0105786   0.0047133  -0.0039980
    6  -0.0028376   0.0003815   0.0012155
    7   0.0013280  -0.0043315   0.0061292
    8  -0.0017085  -0.0049714   0.0099225
    9   0.0000708  -0.0006469   0.0040388
   10   0.0055723  -0.0038654  -0.0047778
   11   0.0051949  -0.0051777  -0.0084798
   12   0.0011968  -0.0022753  -0.0000249
   13   0.0682731   0.0746481   0.0169506
   14   0.0746481   0.1387874   0.0269101
   15   0.0169506   0.0269101   0.0271418
 **********************************************************************
 **                                                                  **
 **                       VIBRATIONAL ANALYSIS                       **
 **                       --------------------                       **
 **                                                                  **
 **        VIBRATIONAL FREQUENCIES (CM**-1) AND NORMAL MODES         **
 **     FORCE CONSTANTS (mDYN/ANGSTROM) AND REDUCED MASSES (AMU)     **
 **                  INFRARED INTENSITIES (KM/MOL)                   **
 **                                                                  **
 **********************************************************************
 

 Mode:                 1                      2                      3
 Frequency:       939.18                 940.21                 940.83
 Force Cnst:      0.5694                 0.5707                 0.5714
 Red. Mass:       1.0957                 1.0957                 1.0956
 IR Active:          YES                    YES                    YES
 IR Intens:      141.239                141.061                140.883
 Raman Active:       YES                    YES                    YES
               X      Y      Z        X      Y      Z        X      Y      Z
 Si        -0.039  0.041 -0.006   -0.021 -0.027 -0.046   -0.036 -0.030  0.033
 H         -0.063 -0.297 -0.132   -0.064  0.366  0.385    0.249  0.365 -0.415
 H          0.458 -0.301 -0.154    0.247  0.417  0.278    0.340  0.031  0.091
 H          0.215 -0.213  0.351    0.419  0.060  0.213    0.246  0.455 -0.170
 H          0.487 -0.321  0.093   -0.026 -0.105  0.401    0.151 -0.023 -0.430
 TransDip  -0.263  0.272 -0.038   -0.139 -0.177 -0.307   -0.237 -0.198  0.222

 Mode:                 4                      5                      6
 Frequency:       987.97                 989.40                2279.20
 Force Cnst:      0.5796                 0.5813                 3.1138
 Red. Mass:       1.0078                 1.0079                 1.0174
 IR Active:          YES                    YES                    YES
 IR Intens:        0.031                  0.102                 28.528
 Raman Active:       YES                    YES                    YES
               X      Y      Z        X      Y      Z        X      Y      Z
 Si         0.001  0.000 -0.000    0.001 -0.000 -0.001    0.009 -0.014 -0.009
 H          0.070  0.467  0.154    0.196  0.109 -0.434    0.230 -0.067  0.082
 H          0.118 -0.416 -0.251    0.467  0.087  0.108    0.043  0.214 -0.350
 H          0.130 -0.331  0.353   -0.426 -0.268 -0.084   -0.398  0.453  0.573
 H         -0.339  0.273 -0.252   -0.274  0.077  0.427   -0.136 -0.225 -0.053
 TransDip   0.005  0.002 -0.001    0.009 -0.001 -0.004    0.086 -0.123 -0.083

 Mode:                 7                      8                      9
 Frequency:      2280.82                2282.20                2282.95
 Force Cnst:      3.2079                 3.2096                 3.2264
 Red. Mass:       1.0466                 1.0459                 1.0507
 IR Active:          YES                    YES                    YES
 IR Intens:      110.928                109.391                122.381
 Raman Active:       YES                    YES                    YES
               X      Y      Z        X      Y      Z        X      Y      Z
 Si         0.013  0.001 -0.035    0.001 -0.037  0.005   -0.037 -0.004 -0.015
 H         -0.137  0.039 -0.068   -0.390  0.093 -0.146    0.775 -0.219  0.293
 H         -0.077 -0.454  0.704    0.034  0.169 -0.287   -0.024 -0.057  0.081
 H         -0.238  0.278  0.335   -0.103  0.104  0.150    0.009 -0.027 -0.037
 H          0.079  0.118  0.013    0.433  0.669  0.158    0.254  0.422  0.091
 TransDip   0.120  0.007 -0.315    0.007 -0.332  0.040   -0.324 -0.038 -0.138

 STANDARD THERMODYNAMIC QUANTITIES AT   298.15 K  AND     1.00 ATM

   This Molecule has  0 Imaginary Frequencies
   Zero point vibrational energy:       19.904 kcal/mol

   Atom    1 Element Si Has Mass   27.97693
   Atom    2 Element H  Has Mass    1.00783
   Atom    3 Element H  Has Mass    1.00783
   Atom    4 Element H  Has Mass    1.00783
   Atom    5 Element H  Has Mass    1.00783
   Molecular Mass:    32.008250 amu
   Principal axes and moments of inertia in amu*Bohr^2:
                             1           2           3
    Eigenvalues --       20.89442    20.90285    20.90744
          X               1.00000     0.00000    -0.00000
          Y              -0.00000     1.00000     0.00000
          Z               0.00000    -0.00000     1.00000
   Rotational Symmetry Number is   1
   The Molecule is an Asymmetric Top
   Translational Enthalpy:        0.889 kcal/mol
   Rotational Enthalpy:           0.889 kcal/mol
   Vibrational Enthalpy:         20.040 kcal/mol
   gas constant (RT):             0.592 kcal/mol
   Translational Entropy:        36.322  cal/mol.K
   Rotational Entropy:           16.864  cal/mol.K
   Vibrational Entropy:           0.554  cal/mol.K

   Total Enthalpy:               22.410 kcal/mol
   Total Entropy:                53.740  cal/mol.K
 =====================================================
 =====================================================
 = Starting finite difference calculation for ANHAR  =
 Finite diff step size:  9.99854e-02 a.u.

 Low frequencies less than 300 will be treated as rotation
 Anharmonic Force Field will start with mode 1

 Eng[0,0,0,0] = -2.91874240696624e+02


 You need 0.0009710 GB memory


 CoordNormalMode -1 , 0 , 0 , 0
 ----------------------------------------------------------------
             Standard Nuclear Orientation (Angstroms)
    I     Atom           X                Y                Z
 ----------------------------------------------------------------
    1      Si      0.0021031104    -0.0021767649     0.0003345199
    2      H       1.3408173243    -0.3508783776     0.5122583435
    3      H       0.1175923610     0.8015039903    -1.2328256976
    4      H      -0.7170774831     0.8178404645     0.9957845143
    5      H      -0.7995317622    -1.2082925372    -0.2840672493
 ----------------------------------------------------------------
 Nuclear Repulsion Energy =          21.39450356 hartrees
 There are        9 alpha and        9 beta electrons

                       Distance Matrix (Angstroms)
             Si(  1)   H (  2)   H (  3)   H (  4)
   H (  2)  1.475064
   H (  3)  1.476457  2.422722
   H (  4)  1.476675  2.415498  2.379841
   H (  5)  1.475879  2.439342  2.404276  2.397923
 
 Requested basis set is def2-TZVP
 There are 29 shells and 61 basis functions
 A cutoff of  1.0D-10 yielded    435 shell pairs
 There are      1959 function pairs (      2313 Cartesian)
 Smallest overlap matrix eigenvalue = 9.85E-03
 Guess MOs from SCF MO coefficient file

 -----------------------------------------------------------------------
  General SCF calculation program by
  Eric Jon Sundstrom, Paul Horn, Yuezhi Mao, Dmitri Zuev, Alec White,
  David Stuck, Shaama M.S., Shane Yost, Joonho Lee, David Small,
  Daniel Levine, Susi Lehtola, Hugh Burton, Evgeny Epifanovsky
 -----------------------------------------------------------------------
 Exchange:     0.2700 Hartree-Fock + 1.0000 M06
 Correlation:  1.0000 M06
 Using SG-3 standard quadrature grid
 using 4 threads for integral computing
 -------------------------------------------------------
 OpenMP Integral computing Module                
 Release: version 2.0, May 2017, Q-Chem Inc. Pleasanton 
 -------------------------------------------------------
 A restricted SCF calculation will be
 performed using DIIS
 SCF converges when DIIS error is below 1.0e-07
 ---------------------------------------
  Cycle       Energy         DIIS error
 ---------------------------------------
    1    -291.8740148676      3.34e-04  
    2    -291.8740574981      3.42e-05  
    3    -291.8740581544      1.29e-05  
    4    -291.8740582723      2.04e-06  
    5    -291.8740582751      3.70e-07  
    6    -291.8740582756      5.71e-08  Convergence criterion met
 ---------------------------------------
 SCF time:   CPU 5.33s  wall 2.00s 
 SCF   energy in the final basis set =     -291.8740582756
 Total energy in the final basis set =     -291.8740582756
 
 --------------------------------------------------------------
 
                    Orbital Energies (a.u.)
 --------------------------------------------------------------
 
 Alpha MOs
 -- Occupied --
-66.2604  -5.3637  -3.6830  -3.6829  -3.6829  -0.5582  -0.3645  -0.3610
 -0.3585
 -- Virtual --
  0.0374   0.0390   0.0418   0.0637   0.1693   0.1703   0.1711   0.1929
  0.1930   0.2811   0.2865   0.2879   0.2898   0.4268   0.5546   0.5565
  0.5578   0.9032   0.9050   0.9077   0.9336   0.9337   1.0200   1.0201
  1.0202   1.0763   1.0775   1.0789   1.1734   1.3006   1.3033   1.3053
  1.8518   1.8625   1.8777   1.8824   1.8954   2.0392   2.0669   2.0875
  2.2292   2.3680   2.3860   2.4007   2.6583   2.8615   2.8692   2.8749
  6.2005   6.2042   6.2093  10.7331
 --------------------------------------------------------------
 
          Ground-State Mulliken Net Atomic Charges

     Atom                 Charge (a.u.)
  ----------------------------------------
      1 Si                    0.212847
      2 H                    -0.050969
      3 H                    -0.053894
      4 H                    -0.055140
      5 H                    -0.052843
  ----------------------------------------
  Sum of atomic charges =     0.000000

 -----------------------------------------------------------------
                    Cartesian Multipole Moments
 -----------------------------------------------------------------
    Charge (ESU x 10^10)
                -0.0000
    Dipole Moment (Debye)
         X       0.0690      Y      -0.0719      Z       0.0118
       Tot       0.1004
    Quadrupole Moments (Debye-Ang)
        XX     -16.3895     XY       0.0018     YY     -16.4206
        XZ       0.0247     YZ      -0.0053     ZZ     -16.4396
    Octopole Moments (Debye-Ang^2)
       XXX      -0.5137    XXY       0.3665    XYY       0.6941
       YYY       0.2154    XXZ      -0.5482    XYZ       0.5797
       YYZ       0.2173    XZZ       0.1833    YZZ      -0.9620
       ZZZ       0.3935
    Hexadecapole Moments (Debye-Ang^3)
      XXXX     -41.8105   XXXY      -0.0470   XXYY     -13.8708
      XYYY       0.0949   YYYY     -41.6826   XXXZ       0.0136
      XXYZ       0.0457   XYYZ      -0.0484   YYYZ       0.0534
      XXZZ     -13.8991   XYZZ      -0.0558   YYZZ     -13.7790
      XZZZ      -0.1616   YZZZ      -0.0612   ZZZZ     -41.5173
 -----------------------------------------------------------------
 Eng[-1,0,0,0] = -2.91874058275578e+02
 points done 1/468
 CoordNormalMode -1 , -1 , 0 , 0
 ----------------------------------------------------------------
             Standard Nuclear Orientation (Angstroms)
    I     Atom           X                Y                Z
 ----------------------------------------------------------------
    1      Si      0.0041930020    -0.0043351773     0.0006373498
    2      H       1.3441376523    -0.3351619187     0.5192188090
    3      H       0.0933778731     0.8174077164    -1.2246859083
    4      H      -0.7284432370     0.8291341479     0.9772141765
    5      H      -0.8252863442    -1.1912898005    -0.2890035968
 ----------------------------------------------------------------
 Nuclear Repulsion Energy =          21.38333156 hartrees
 There are        9 alpha and        9 beta electrons

                       Distance Matrix (Angstroms)
             Si(  1)   H (  2)   H (  3)   H (  4)
   H (  2)  1.474390
   H (  3)  1.478050  2.435984
   H (  4)  1.478218  2.420937  2.350296
   H (  5)  1.476750  2.468315  2.398815  2.386378
 
 Requested basis set is def2-TZVP
 There are 29 shells and 61 basis functions
 A cutoff of  1.0D-10 yielded    435 shell pairs
 There are      1959 function pairs (      2313 Cartesian)
 Smallest overlap matrix eigenvalue = 9.83E-03
 Guess MOs from SCF MO coefficient file

 -----------------------------------------------------------------------
  General SCF calculation program by
  Eric Jon Sundstrom, Paul Horn, Yuezhi Mao, Dmitri Zuev, Alec White,
  David Stuck, Shaama M.S., Shane Yost, Joonho Lee, David Small,
  Daniel Levine, Susi Lehtola, Hugh Burton, Evgeny Epifanovsky
 -----------------------------------------------------------------------
 Exchange:     0.2700 Hartree-Fock + 1.0000 M06
 Correlation:  1.0000 M06
 Using SG-3 standard quadrature grid
 using 4 threads for integral computing
 -------------------------------------------------------
 OpenMP Integral computing Module                
 Release: version 2.0, May 2017, Q-Chem Inc. Pleasanton 
 -------------------------------------------------------
 A restricted SCF calculation will be
 performed using DIIS
 SCF converges when DIIS error is below 1.0e-07
 ---------------------------------------
  Cycle       Energy         DIIS error
 ---------------------------------------
    1    -291.8734633919      3.35e-04  
    2    -291.8735064204      3.37e-05  
    3    -291.8735070662      1.27e-05  
    4    -291.8735071780      2.40e-06  
    5    -291.8735071814      5.99e-07  
    6    -291.8735071820      1.12e-07  
    7    -291.8735071810      2.19e-08  Convergence criterion met
 ---------------------------------------
 SCF time:   CPU 6.20s  wall 1.00s 
 SCF   energy in the final basis set =     -291.8735071810
 Total energy in the final basis set =     -291.8735071810
 
 --------------------------------------------------------------
 
                    Orbital Energies (a.u.)
 --------------------------------------------------------------
 
 Alpha MOs
 -- Occupied --
-66.2606  -5.3639  -3.6833  -3.6832  -3.6830  -0.5582  -0.3676  -0.3605
 -0.3553
 -- Virtual --
  0.0352   0.0379   0.0437   0.0641   0.1684   0.1704   0.1719   0.1929
  0.1931   0.2794   0.2854   0.2884   0.2926   0.4269   0.5509   0.5554
  0.5585   0.9020   0.9052   0.9104   0.9336   0.9337   1.0195   1.0198
  1.0199   1.0750   1.0772   1.0807   1.1741   1.2986   1.3043   1.3080
  1.8320   1.8516   1.8778   1.8870   1.9159   2.0142   2.0666   2.1086
  2.2289   2.3527   2.3859   2.4143   2.6561   2.8505   2.8682   2.8832
  6.1955   6.2028   6.2134  10.7293
 --------------------------------------------------------------
 
          Ground-State Mulliken Net Atomic Charges

     Atom                 Charge (a.u.)
  ----------------------------------------
      1 Si                    0.210981
      2 H                    -0.048903
      3 H                    -0.054180
      4 H                    -0.055959
      5 H                    -0.051939
  ----------------------------------------
  Sum of atomic charges =     0.000000

 -----------------------------------------------------------------
                    Cartesian Multipole Moments
 -----------------------------------------------------------------
    Charge (ESU x 10^10)
                -0.0000
    Dipole Moment (Debye)
         X       0.1398      Y      -0.1437      Z       0.0230
       Tot       0.2018
    Quadrupole Moments (Debye-Ang)
        XX     -16.3664     XY       0.0029     YY     -16.4299
        XZ       0.0492     YZ      -0.0103     ZZ     -16.4677
    Octopole Moments (Debye-Ang^2)
       XXX      -0.2751    XXY       0.2789    XYY       0.7561
       YYY       0.0124    XXZ      -0.5271    XYZ       0.5863
       YYZ       0.2212    XZZ       0.2635    YZZ      -1.0552
       ZZZ       0.4305
    Hexadecapole Moments (Debye-Ang^3)
      XXXX     -42.0256   XXXY      -0.0253   XXYY     -13.9065
      XYYY       0.0800   YYYY     -41.7127   XXXZ      -0.0714
      XXYZ       0.0630   XYYZ      -0.0786   YYYZ       0.0613
      XXZZ     -13.9159   XYZZ      -0.0605   YYZZ     -13.7581
      XZZZ      -0.2380   YZZZ      -0.0505   ZZZZ     -41.4269
 -----------------------------------------------------------------
 Eng[-1,-1,0,0] = -2.91873507181030e+02
 points done 2/468
 CoordNormalMode -2 , 0 , 0 , 0
 ----------------------------------------------------------------
             Standard Nuclear Orientation (Angstroms)
    I     Atom           X                Y                Z
 ----------------------------------------------------------------
    1      Si      0.0011127661     0.0013907987     0.0024668049
    2      H       1.3408676276    -0.3859779451     0.4849143218
    3      H       0.1287222497     0.7635153684    -1.2556514863
    4      H      -0.7278951500     0.8033647103     1.0030601367
    5      H      -0.7724027519    -1.2197626336    -0.3003643838
 ----------------------------------------------------------------
 Nuclear Repulsion Energy =          21.39418737 hartrees
 There are        9 alpha and        9 beta electrons

                       Distance Matrix (Angstroms)
             Si(  1)   H (  2)   H (  3)   H (  4)
   H (  2)  1.475721
   H (  3)  1.476475  2.412509
   H (  4)  1.475060  2.441883  2.416021
   H (  5)  1.476905  2.403699  2.378653  2.407061
 
 Requested basis set is def2-TZVP
 There are 29 shells and 61 basis functions
 A cutoff of  1.0D-10 yielded    435 shell pairs
 There are      1959 function pairs (      2313 Cartesian)
 Smallest overlap matrix eigenvalue = 9.85E-03
 Guess MOs from SCF MO coefficient file

 -----------------------------------------------------------------------
  General SCF calculation program by
  Eric Jon Sundstrom, Paul Horn, Yuezhi Mao, Dmitri Zuev, Alec White,
  David Stuck, Shaama M.S., Shane Yost, Joonho Lee, David Small,
  Daniel Levine, Susi Lehtola, Hugh Burton, Evgeny Epifanovsky
 -----------------------------------------------------------------------
 Exchange:     0.2700 Hartree-Fock + 1.0000 M06
 Correlation:  1.0000 M06
 Using SG-3 standard quadrature grid
 using 4 threads for integral computing
 -------------------------------------------------------
 OpenMP Integral computing Module                
 Release: version 2.0, May 2017, Q-Chem Inc. Pleasanton 
 -------------------------------------------------------
 A restricted SCF calculation will be
 performed using DIIS
 SCF converges when DIIS error is below 1.0e-07
 ---------------------------------------
  Cycle       Energy         DIIS error
 ---------------------------------------
    1    -291.8738359768      7.48e-04  
    2    -291.8740495583      7.73e-05  
    3    -291.8740529047      3.00e-05  
    4    -291.8740535347      4.87e-06  
    5    -291.8740535511      1.16e-06  
    6    -291.8740535512      2.19e-07  
    7    -291.8740535517      5.18e-08  Convergence criterion met
 ---------------------------------------
 SCF time:   CPU 6.26s  wall 2.00s 
 SCF   energy in the final basis set =     -291.8740535517
 Total energy in the final basis set =     -291.8740535517
 
 --------------------------------------------------------------
 
                    Orbital Energies (a.u.)
 --------------------------------------------------------------
 
 Alpha MOs
 -- Occupied --
-66.2604  -5.3637  -3.6830  -3.6830  -3.6829  -0.5582  -0.3644  -0.3614
 -0.3582
 -- Virtual --
  0.0372   0.0392   0.0419   0.0637   0.1694   0.1702   0.1711   0.1929
  0.1930   0.2810   0.2864   0.2885   0.2894   0.4268   0.5544   0.5570
  0.5574   0.9031   0.9053   0.9075   0.9336   0.9337   1.0200   1.0201
  1.0202   1.0765   1.0773   1.0789   1.1734   1.3007   1.3031   1.3054
  1.8515   1.8673   1.8735   1.8816   1.8954   2.0410   2.0626   2.0898
  2.2293   2.3702   2.3838   2.4004   2.6583   2.8576   2.8669   2.8795
  6.2002   6.2047   6.2090  10.7330
 --------------------------------------------------------------
 
          Ground-State Mulliken Net Atomic Charges

     Atom                 Charge (a.u.)
  ----------------------------------------
      1 Si                    0.212619
      2 H                    -0.051609
      3 H                    -0.053744
      4 H                    -0.052591
      5 H                    -0.054674
  ----------------------------------------
  Sum of atomic charges =     0.000000

 -----------------------------------------------------------------
                    Cartesian Multipole Moments
 -----------------------------------------------------------------
    Charge (ESU x 10^10)
                -0.0000
    Dipole Moment (Debye)
         X       0.0353      Y       0.0473      Z       0.0830
       Tot       0.1018
    Quadrupole Moments (Debye-Ang)
        XX     -16.4017     XY      -0.0282     YY     -16.4341
        XZ      -0.0036     YZ       0.0118     ZZ     -16.4147
    Octopole Moments (Debye-Ang^2)
       XXX      -0.6228    XXY       0.5069    XYY       0.6824
       YYY       0.5768    XXZ      -0.4754    XYZ       0.5660
       YYZ       0.3137    XZZ       0.1226    YZZ      -0.8293
       ZZZ       0.6040
    Hexadecapole Moments (Debye-Ang^3)
      XXXX     -41.7430   XXXY       0.0198   XXYY     -13.8394
      XYYY       0.2037   YYYY     -41.5856   XXXZ       0.0987
      XXYZ       0.0228   XYYZ      -0.0023   YYYZ       0.0155
      XXZZ     -13.9227   XYZZ      -0.0142   YYZZ     -13.8072
      XZZZ      -0.0701   YZZZ      -0.1230   ZZZZ     -41.6493
 -----------------------------------------------------------------
 Eng[-2,0,0,0] = -2.91874053551672e+02
 points done 3/468
 CoordNormalMode -2 , -2 , 0 , 0
 ----------------------------------------------------------------
             Standard Nuclear Orientation (Angstroms)
    I     Atom           X                Y                Z
 ----------------------------------------------------------------
    1      Si      0.0022123133     0.0027999499     0.0049019200
    2      H       1.3442382587    -0.4053610536     0.4645307655
    3      H       0.1156376506     0.7414304726    -1.2703374858
    4      H      -0.7500785707     0.8001826395     0.9917654212
    5      H      -0.7710283236    -1.2142299933    -0.3215978659
 ----------------------------------------------------------------
 Nuclear Repulsion Energy =          21.38268851 hartrees
 There are        9 alpha and        9 beta electrons

                       Distance Matrix (Angstroms)
             Si(  1)   H (  2)   H (  3)   H (  4)
   H (  2)  1.476106
   H (  3)  1.478065  2.415442
   H (  4)  1.475012  2.473353  2.422814
   H (  5)  1.478399  2.397211  2.347529  2.404833
 
 Requested basis set is def2-TZVP
 There are 29 shells and 61 basis functions
 A cutoff of  1.0D-10 yielded    435 shell pairs
 There are      1959 function pairs (      2313 Cartesian)
 Smallest overlap matrix eigenvalue = 9.83E-03
 Guess MOs from SCF MO coefficient file

 -----------------------------------------------------------------------
  General SCF calculation program by
  Eric Jon Sundstrom, Paul Horn, Yuezhi Mao, Dmitri Zuev, Alec White,
  David Stuck, Shaama M.S., Shane Yost, Joonho Lee, David Small,
  Daniel Levine, Susi Lehtola, Hugh Burton, Evgeny Epifanovsky
 -----------------------------------------------------------------------
 Exchange:     0.2700 Hartree-Fock + 1.0000 M06
 Correlation:  1.0000 M06
 Using SG-3 standard quadrature grid
 using 4 threads for integral computing
 -------------------------------------------------------
 OpenMP Integral computing Module                
 Release: version 2.0, May 2017, Q-Chem Inc. Pleasanton 
 -------------------------------------------------------
 A restricted SCF calculation will be
 performed using DIIS
 SCF converges when DIIS error is below 1.0e-07
 ---------------------------------------
  Cycle       Energy         DIIS error
 ---------------------------------------
    1    -291.8734569419      3.35e-04  
    2    -291.8735000551      3.42e-05  
    3    -291.8735007162      1.31e-05  
    4    -291.8735008349      2.45e-06  
    5    -291.8735008387      6.49e-07  
    6    -291.8735008392      1.14e-07  
    7    -291.8735008385      2.11e-08  Convergence criterion met
 ---------------------------------------
 SCF time:   CPU 6.22s  wall 2.00s 
 SCF   energy in the final basis set =     -291.8735008385
 Total energy in the final basis set =     -291.8735008385
 
 --------------------------------------------------------------
 
                    Orbital Energies (a.u.)
 --------------------------------------------------------------
 
 Alpha MOs
 -- Occupied --
-66.2606  -5.3639  -3.6833  -3.6832  -3.6830  -0.5582  -0.3671  -0.3614
 -0.3549
 -- Virtual --
  0.0347   0.0380   0.0441   0.0640   0.1686   0.1702   0.1720   0.1929
  0.1931   0.2791   0.2854   0.2902   0.2912   0.4269   0.5506   0.5561
  0.5581   0.9016   0.9057   0.9102   0.9336   0.9337   1.0195   1.0198
  1.0198   1.0757   1.0763   1.0807   1.1741   1.2988   1.3038   1.3081
  1.8314   1.8627   1.8672   1.8851   1.9175   2.0184   2.0576   2.1127
  2.2290   2.3562   2.3811   2.4154   2.6560   2.8454   2.8684   2.8850
  6.1950   6.2041   6.2124  10.7291
 --------------------------------------------------------------
 
          Ground-State Mulliken Net Atomic Charges

     Atom                 Charge (a.u.)
  ----------------------------------------
      1 Si                    0.210551
      2 H                    -0.050107
      3 H                    -0.053891
      4 H                    -0.050876
      5 H                    -0.055677
  ----------------------------------------
  Sum of atomic charges =     0.000000

 -----------------------------------------------------------------
                    Cartesian Multipole Moments
 -----------------------------------------------------------------
    Charge (ESU x 10^10)
                -0.0000
    Dipole Moment (Debye)
         X       0.0714      Y       0.0937      Z       0.1646
       Tot       0.2024
    Quadrupole Moments (Debye-Ang)
        XX     -16.3913     XY      -0.0562     YY     -16.4577
        XZ      -0.0071     YZ       0.0249     ZZ     -16.4162
    Octopole Moments (Debye-Ang^2)
       XXX      -0.4984    XXY       0.5581    XYY       0.7320
       YYY       0.7337    XXZ      -0.3807    XYZ       0.5589
       YYZ       0.4135    XZZ       0.1390    YZZ      -0.7914
       ZZZ       0.8470
    Hexadecapole Moments (Debye-Ang^3)
      XXXX     -41.8870   XXXY       0.0971   XXYY     -13.8398
      XYYY       0.2972   YYYY     -41.5192   XXXZ       0.0926
      XXYZ       0.0172   XYYZ       0.0107   YYYZ      -0.0197
      XXZZ     -13.9643   XYZZ       0.0220   YYZZ     -13.8143
      XZZZ      -0.0498   YZZZ      -0.1761   ZZZZ     -41.6984
 -----------------------------------------------------------------
 Eng[-2,-2,0,0] = -2.91873500838473e+02
 points done 4/468
 CoordNormalMode -3 , 0 , 0 , 0
 ----------------------------------------------------------------
             Standard Nuclear Orientation (Angstroms)
    I     Atom           X                Y                Z
 ----------------------------------------------------------------
    1      Si      0.0018930247     0.0015563390    -0.0017292818
    2      H       1.3243007216    -0.3858851651     0.5272567260
    3      H       0.1237994586     0.7839832699    -1.2458019418
    4      H      -0.7187125075     0.7824984107     1.0233545112
    5      H      -0.7817553425    -1.2240523436    -0.2563691338
 ----------------------------------------------------------------
 Nuclear Repulsion Energy =          21.39456673 hartrees
 There are        9 alpha and        9 beta electrons

                       Distance Matrix (Angstroms)
             Si(  1)   H (  2)   H (  3)   H (  4)
   H (  2)  1.476042
   H (  3)  1.474710  2.439986
   H (  4)  1.476462  2.405231  2.420516
   H (  5)  1.476842  2.398346  2.414791  2.380738
 
 Requested basis set is def2-TZVP
 There are 29 shells and 61 basis functions
 A cutoff of  1.0D-10 yielded    435 shell pairs
 There are      1959 function pairs (      2313 Cartesian)
 Smallest overlap matrix eigenvalue = 9.85E-03
 Guess MOs from SCF MO coefficient file

 -----------------------------------------------------------------------
  General SCF calculation program by
  Eric Jon Sundstrom, Paul Horn, Yuezhi Mao, Dmitri Zuev, Alec White,
  David Stuck, Shaama M.S., Shane Yost, Joonho Lee, David Small,
  Daniel Levine, Susi Lehtola, Hugh Burton, Evgeny Epifanovsky
 -----------------------------------------------------------------------
 Exchange:     0.2700 Hartree-Fock + 1.0000 M06
 Correlation:  1.0000 M06
 Using SG-3 standard quadrature grid
 using 4 threads for integral computing
 -------------------------------------------------------
 OpenMP Integral computing Module                
 Release: version 2.0, May 2017, Q-Chem Inc. Pleasanton 
 -------------------------------------------------------
 A restricted SCF calculation will be
 performed using DIIS
 SCF converges when DIIS error is below 1.0e-07
 ---------------------------------------
  Cycle       Energy         DIIS error
 ---------------------------------------
    1    -291.8738442769      7.46e-04  
    2    -291.8740579184      7.72e-05  
    3    -291.8740612482      2.96e-05  
    4    -291.8740618558      5.12e-06  
    5    -291.8740618730      1.31e-06  
    6    -291.8740618732      2.38e-07  
    7    -291.8740618736      4.91e-08  Convergence criterion met
 ---------------------------------------
 SCF time:   CPU 6.24s  wall 1.00s 
 SCF   energy in the final basis set =     -291.8740618736
 Total energy in the final basis set =     -291.8740618736
 
 --------------------------------------------------------------
 
                    Orbital Energies (a.u.)
 --------------------------------------------------------------
 
 Alpha MOs
 -- Occupied --
-66.2604  -5.3637  -3.6830  -3.6830  -3.6829  -0.5582  -0.3645  -0.3610
 -0.3585
 -- Virtual --
  0.0375   0.0390   0.0418   0.0637   0.1693   0.1703   0.1711   0.1929
  0.1930   0.2811   0.2865   0.2880   0.2898   0.4268   0.5546   0.5565
  0.5578   0.9032   0.9051   0.9076   0.9336   0.9337   1.0200   1.0201
  1.0202   1.0763   1.0776   1.0788   1.1734   1.3005   1.3034   1.3052
  1.8515   1.8643   1.8772   1.8821   1.8946   2.0397   2.0661   2.0878
  2.2293   2.3686   2.3861   2.3999   2.6584   2.8602   2.8680   2.8770
  6.2006   6.2040   6.2094  10.7331
 --------------------------------------------------------------
 
          Ground-State Mulliken Net Atomic Charges

     Atom                 Charge (a.u.)
  ----------------------------------------
      1 Si                    0.212801
      2 H                    -0.052264
      3 H                    -0.051458
      4 H                    -0.054605
      5 H                    -0.054474
  ----------------------------------------
  Sum of atomic charges =     0.000000

 -----------------------------------------------------------------
                    Cartesian Multipole Moments
 -----------------------------------------------------------------
    Charge (ESU x 10^10)
                -0.0000
    Dipole Moment (Debye)
         X       0.0615      Y       0.0532      Z      -0.0580
       Tot       0.0999
    Quadrupole Moments (Debye-Ang)
        XX     -16.4199     XY      -0.0083     YY     -16.4307
        XZ       0.0035     YZ      -0.0305     ZZ     -16.3993
    Octopole Moments (Debye-Ang^2)
       XXX      -0.5682    XXY       0.5022    XYY       0.7175
       YYY       0.5885    XXZ      -0.6135    XYZ       0.5817
       YYZ       0.1473    XZZ       0.1743    YZZ      -0.8046
       ZZZ       0.1554
    Hexadecapole Moments (Debye-Ang^3)
      XXXX     -41.6259   XXXY      -0.0288   XXYY     -13.8209
      XYYY       0.1495   YYYY     -41.6127   XXXZ       0.0784
      XXYZ       0.0579   XYYZ      -0.0174   YYYZ       0.1343
      XXZZ     -13.8996   XYZZ      -0.0529   YYZZ     -13.8329
      XZZZ      -0.0999   YZZZ       0.0339   ZZZZ     -41.7630
 -----------------------------------------------------------------
 Eng[-3,0,0,0] = -2.91874061873620e+02
 points done 5/468
 CoordNormalMode -3 , -3 , 0 , 0
 ----------------------------------------------------------------
             Standard Nuclear Orientation (Angstroms)
    I     Atom           X                Y                Z
 ----------------------------------------------------------------
    1      Si      0.0037728305     0.0031310305    -0.0034902534
    2      H       1.3111044469    -0.4051754935     0.5492155739
    3      H       0.1057920684     0.7823662755    -1.2506383967
    4      H      -0.7317132857     0.7584500403     1.0323541701
    5      H      -0.7897335048    -1.2228094134    -0.2336073659
 ----------------------------------------------------------------
 Nuclear Repulsion Energy =          21.38345616 hartrees
 There are        9 alpha and        9 beta electrons

                       Distance Matrix (Angstroms)
             Si(  1)   H (  2)   H (  3)   H (  4)
   H (  2)  1.476927
   H (  3)  1.474108  2.470325
   H (  4)  1.477978  2.400115  2.431880
   H (  5)  1.478356  2.386390  2.420134  2.351896
 
 Requested basis set is def2-TZVP
 There are 29 shells and 61 basis functions
 A cutoff of  1.0D-10 yielded    435 shell pairs
 There are      1959 function pairs (      2313 Cartesian)
 Smallest overlap matrix eigenvalue = 9.83E-03
 Guess MOs from SCF MO coefficient file

 -----------------------------------------------------------------------
  General SCF calculation program by
  Eric Jon Sundstrom, Paul Horn, Yuezhi Mao, Dmitri Zuev, Alec White,
  David Stuck, Shaama M.S., Shane Yost, Joonho Lee, David Small,
  Daniel Levine, Susi Lehtola, Hugh Burton, Evgeny Epifanovsky
 -----------------------------------------------------------------------
 Exchange:     0.2700 Hartree-Fock + 1.0000 M06
 Correlation:  1.0000 M06
 Using SG-3 standard quadrature grid
 using 4 threads for integral computing
 -------------------------------------------------------
[...]
 VCI[4] |  0  0  0  0  0  0  1  2  0 >    6694.22 
 VCI[4] |  1  0  0  1  0  0  0  1  1 >    6695.71 
 VCI[4] |  0  1  0  1  0  1  1  0  0 >    6700.06 
 VCI[4] |  0  0  1  0  1  1  1  0  0 >    6702.56 
 VCI[4] |  0  0  0  0  0  0  2  1  0 >    6702.83 
 VCI[4] |  0  0  1  0  1  1  1  0  0 >    6703.84 
 VCI[4] |  1  0  0  1  0  0  0  0  2 >    6704.41 
 VCI[4] |  0  0  0  0  2  0  0  1  1 >    6704.46 
 VCI[4] |  0  0  1  1  0  1  1  0  0 >    6713.91 
 VCI[4] |  0  0  1  1  0  1  1  0  0 >    6713.96 
 VCI[4] |  0  0  0  0  2  0  0  2  0 >    6715.78 
 VCI[4] |  1  0  0  1  0  1  1  0  0 >    6719.47 
 VCI[4] |  0  0  0  0  0  0  1  1  1 >    6720.57 
 VCI[4] |  0  0  1  0  1  2  0  0  0 >    6721.71 
 VCI[4] |  0  0  0  0  0  0  0  3  0 >    6728.21 
 VCI[4] |  0  1  0  0  1  2  0  0  0 >    6730.98 
 VCI[4] |  0  0  0  1  1  0  0  1  1 >    6732.82 
 VCI[4] |  0  0  1  1  0  2  0  0  0 >    6735.19 
 VCI[4] |  0  0  0  2  0  0  0  1  1 >    6735.97 
 VCI[4] |  0  0  0  0  0  1  0  0  2 >    6739.84 
 VCI[4] |  0  0  0  0  2  1  1  0  0 >    6743.66 
 VCI[4] |  0  1  0  1  0  2  0  0  0 >    6744.48 
 VCI[4] |  0  0  0  1  1  0  0  2  0 >    6745.70 
 VCI[4] |  1  0  0  0  1  2  0  0  0 >    6746.36 
 VCI[4] |  0  0  0  2  0  0  0  2  0 >    6749.59 
 VCI[4] |  0  0  0  0  0  0  0  0  3 >    6757.33 
 VCI[4] |  0  0  0  0  0  0  3  0  0 >    6758.71 
 VCI[4] |  0  0  0  0  0  0  0  2  1 >    6765.19 
 VCI[4] |  1  0  0  1  0  2  0  0  0 >    6765.77 
 VCI[4] |  0  0  0  1  1  1  1  0  0 >    6769.30 
 VCI[4] |  0  0  0  0  2  1  1  0  0 >    6770.78 
 VCI[4] |  0  0  0  2  0  1  1  0  0 >    6773.83 
 VCI[4] |  0  0  0  0  0  2  0  1  0 >    6775.90 
 VCI[4] |  0  0  0  0  0  2  0  0  1 >    6776.77 
 VCI[4] |  0  0  0  0  0  1  1  0  1 >    6787.38 
 VCI[4] |  0  0  0  0  0  1  1  0  1 >    6798.75 
 VCI[4] |  0  0  0  1  1  2  0  0  0 >    6805.73 
 VCI[4] |  0  0  0  2  0  2  0  0  0 >    6809.50 
 VCI[4] |  0  0  0  0  0  1  0  1  1 >    6813.17 
 VCI[4] |  0  0  0  0  0  2  0  0  1 >    6818.99 
 VCI[4] |  0  0  0  0  0  1  2  0  0 >    6831.99 
 VCI[4] |  0  0  0  0  0  1  2  0  0 >    6846.24 
 VCI[4] |  0  0  0  0  0  2  1  0  0 >    6861.26 
 VCI[4] |  0  0  0  0  0  3  0  0  0 >    6891.22 
 VCI[4] |  0  0  1  0  0  1  0  0  2 >    7877.14 
 VCI[4] |  0  1  0  0  0  0  1  0  2 >    7884.45 
 VCI[4] |  0  1  0  0  0  1  0  0  2 >    7889.99 
 VCI[4] |  0  0  1  0  0  0  1  0  2 >    7891.16 
 VCI[4] |  1  0  0  0  0  0  2  1  0 >    7895.84 
 VCI[4] |  1  0  0  0  0  1  0  0  2 >    7905.13 
 VCI[4] |  0  0  1  0  0  0  1  0  2 >    7915.25 
 VCI[4] |  0  1  0  0  0  0  1  0  2 >    7917.60 
 VCI[4] |  0  1  0  0  0  0  2  0  1 >    7923.53 
 VCI[4] |  0  0  1  0  0  0  2  0  1 >    7926.06 
 VCI[4] |  1  0  0  0  0  0  1  0  2 >    7933.06 
 VCI[4] |  1  0  0  0  0  0  2  0  1 >    7937.98 
 VCI[4] |  0  0  0  0  1  0  0  3  0 >    7943.35 
 VCI[4] |  0  0  1  0  0  0  0  0  3 >    7948.78 
 VCI[4] |  0  0  0  0  1  0  2  0  1 >    7952.38 
 VCI[4] |  0  1  0  0  0  0  0  0  3 >    7953.31 
 VCI[4] |  0  0  0  1  0  0  1  0  2 >    7955.85 
 VCI[4] |  0  0  1  0  0  1  0  0  2 >    7956.84 
 VCI[4] |  0  0  0  1  0  0  2  0  1 >    7962.70 
 VCI[4] |  0  1  0  0  0  0  1  1  1 >    7964.41 
 VCI[4] |  1  0  0  0  0  0  0  0  3 >    7967.63 
 VCI[4] |  0  0  1  0  0  0  1  1  1 >    7969.29 
 VCI[4] |  0  1  0  0  0  0  0  1  2 >    7971.86 
 VCI[4] |  0  0  0  0  1  0  1  0  2 >    7979.65 
 VCI[4] |  1  0  0  0  0  0  1  0  2 >    7981.10 
 VCI[4] |  0  0  0  0  1  0  2  0  1 >    7987.95 
 VCI[4] |  0  0  0  1  0  0  1  0  2 >    7989.94 
 VCI[4] |  1  0  0  0  0  1  0  0  2 >    7990.81 
 VCI[4] |  0  0  0  1  0  0  2  0  1 >    7997.65 
 VCI[4] |  0  1  0  0  0  0  1  1  1 >    8003.05 
 VCI[4] |  0  0  1  0  0  0  1  2  0 >    8003.32 
 VCI[4] |  0  0  0  0  1  0  0  0  3 >    8012.90 
 VCI[4] |  1  0  0  0  0  0  1  1  1 >    8013.85 
 VCI[4] |  0  0  1  0  0  1  0  1  1 >    8016.02 
 VCI[4] |  0  1  0  0  0  1  0  1  1 >    8021.97 
 VCI[4] |  0  0  0  1  0  0  0  0  3 >    8024.49 
 VCI[4] |  0  0  0  0  1  0  1  1  1 >    8025.68 
 VCI[4] |  0  0  0  0  1  0  0  1  2 >    8033.26 
 VCI[4] |  0  0  0  1  0  0  1  1  1 >    8036.24 
 VCI[4] |  1  0  0  0  0  1  0  1  1 >    8038.42 
 VCI[4] |  0  0  0  1  0  0  0  1  2 >    8043.56 
 VCI[4] |  0  1  0  0  0  1  2  0  0 >    8047.22 
 VCI[4] |  0  0  1  0  0  1  2  0  0 >    8055.22 
 VCI[4] |  1  0  0  0  0  1  2  0  0 >    8058.39 
 VCI[4] |  0  0  0  0  1  0  1  1  1 >    8062.84 
 VCI[4] |  0  0  0  1  0  0  1  1  1 >    8075.30 
 VCI[4] |  0  0  0  0  1  1  0  1  1 >    8082.69 
 VCI[4] |  0  0  0  1  0  1  0  1  1 >    8095.22 
 VCI[4] |  0  0  0  0  1  1  2  0  0 >    8111.34 
 VCI[4] |  0  0  0  1  0  1  2  0  0 >    8122.24 
 VCI[4] |  0  0  1  0  0  1  0  2  0 >    8143.77 
 VCI[4] |  0  1  0  0  0  0  0  3  0 >    8152.62 
 VCI[4] |  1  0  0  0  0  0  0  3  0 >    8162.40 
 VCI[4] |  0  1  0  0  0  1  1  0  1 >    8171.20 
 VCI[4] |  0  0  1  0  0  1  1  0  1 >    8176.68 
 VCI[4] |  0  0  1  0  0  2  0  0  1 >    8182.10 
 VCI[4] |  0  1  0  0  0  1  1  1  0 >    8189.35 
 VCI[4] |  1  0  0  0  0  1  1  1  0 >    8193.93 
 VCI[4] |  0  0  1  0  0  3  0  0  0 >    8195.97 
 VCI[4] |  1  0  0  0  0  1  1  0  1 >    8197.71 
 VCI[4] |  0  1  0  0  0  2  1  0  0 >    8198.94 
 VCI[4] |  0  0  1  0  0  1  1  1  0 >    8199.41 
 VCI[4] |  0  1  0  0  0  2  0  0  1 >    8200.31 
 VCI[4] |  1  0  0  0  0  2  1  0  0 >    8211.44 
 VCI[4] |  0  0  0  0  1  0  0  3  0 >    8218.12 
 VCI[4] |  1  0  0  0  0  2  0  0  1 >    8228.94 
 VCI[4] |  0  0  0  1  0  0  0  3  0 >    8231.95 
 VCI[4] |  0  0  1  0  0  2  0  1  0 >    8233.93 
 VCI[4] |  0  1  0  0  0  2  0  1  0 >    8241.97 
 VCI[4] |  0  0  0  0  1  1  1  0  1 >    8249.68 
 VCI[4] |  1  0  0  0  0  2  0  1  0 >    8252.19 
 VCI[4] |  0  0  0  1  0  1  1  0  1 >    8258.49 
 VCI[4] |  0  0  0  0  1  1  1  1  0 >    8260.76 
 VCI[4] |  0  0  0  0  1  2  0  0  1 >    8268.16 
 VCI[4] |  0  0  0  0  1  2  0  0  1 >    8272.04 
 VCI[4] |  0  0  0  1  0  1  1  1  0 >    8272.80 
 VCI[4] |  0  0  0  1  0  2  0  0  1 >    8280.14 
 VCI[4] |  0  0  0  1  0  2  1  0  0 >    8283.95 
 VCI[4] |  0  0  0  0  1  2  0  1  0 >    8307.22 
 VCI[4] |  0  0  0  1  0  2  0  1  0 >    8321.91 
 VCI[4] |  0  0  1  0  0  0  0  0  3 >    8441.09 
 VCI[4] |  0  1  0  0  0  0  0  0  3 >    8464.35 
 VCI[4] |  1  0  0  0  0  0  0  3  0 >    8491.06 
 VCI[4] |  0  0  1  0  0  0  0  3  0 >    8493.15 
 VCI[4] |  0  1  0  0  0  0  0  3  0 >    8505.05 
 VCI[4] |  1  0  0  0  0  0  0  0  3 >    8511.66 
 VCI[4] |  0  1  0  0  0  0  3  0  0 >    8518.83 
 VCI[4] |  1  0  0  0  0  0  3  0  0 >    8531.65 
 VCI[4] |  0  0  0  0  1  0  0  0  3 >    8543.28 
 VCI[4] |  0  0  1  0  0  2  1  0  0 >    8550.09 
 VCI[4] |  0  0  0  1  0  0  0  0  3 >    8552.15 
 VCI[4] |  0  0  0  0  1  0  0  3  0 >    8562.90 
 VCI[4] |  0  0  1  0  0  3  0  0  0 >    8570.46 
 VCI[4] |  0  0  0  1  0  0  0  3  0 >    8580.09 
 VCI[4] |  0  1  0  0  0  3  0  0  0 >    8584.08 
 VCI[4] |  1  0  0  0  0  3  0  0  0 >    8600.86 
 VCI[4] |  0  0  0  0  1  0  3  0  0 >    8605.36 
 VCI[4] |  0  0  0  1  0  0  3  0  0 >    8613.88 
 VCI[4] |  0  0  0  0  1  3  0  0  0 >    8653.54 
 VCI[4] |  0  0  0  1  0  3  0  0  0 >    8667.67 
 VCI[4] |  0  0  0  0  0  0  2  2  0 >    9404.36 
 VCI[4] |  0  0  0  0  0  0  1  0  3 >    9438.77 
 VCI[4] |  0  0  0  0  0  1  0  0  3 >    9446.81 
 VCI[4] |  0  0  0  0  0  0  0  4  0 >    9455.70 
 VCI[4] |  0  0  0  0  0  0  1  3  0 >    9472.53 
 VCI[4] |  0  0  0  0  0  0  3  1  0 >    9487.05 
 VCI[4] |  0  0  0  0  0  1  0  1  2 >    9501.18 
 VCI[4] |  0  0  0  0  0  0  1  1  2 >    9525.70 
 VCI[4] |  0  0  0  0  0  0  0  1  3 >    9550.67 
 VCI[4] |  0  0  0  0  0  1  0  1  2 >    9567.64 
 VCI[4] |  0  0  0  0  0  0  0  1  3 >    9580.00 
 VCI[4] |  0  0  0  0  0  0  2  1  1 >    9595.14 
 VCI[4] |  0  0  0  0  0  0  1  2  1 >    9630.45 
 VCI[4] |  0  0  0  0  0  1  0  2  1 >    9666.78 
 VCI[4] |  0  0  0  0  0  1  3  0  0 >    9702.03 
 VCI[4] |  0  0  0  0  0  2  0  0  2 >    9787.49 
 VCI[4] |  0  0  0  0  0  1  1  0  2 >    9802.82 
 VCI[4] |  0  0  0  0  0  2  1  1  0 >    9838.11 
 VCI[4] |  0  0  0  0  0  2  0  1  1 >    9842.43 
 VCI[4] |  0  0  0  0  0  0  0  2  2 >    9967.58 
 VCI[4] |  0  0  0  0  0  1  1  1  1 >   10000.75 
 VCI[4] |  0  0  0  0  0  2  0  0  2 >   10007.22 
 VCI[4] |  0  0  0  0  0  2  0  1  1 >   10032.45 
 VCI[4] |  0  0  0  0  0  1  1  2  0 >   10037.90 
 VCI[4] |  0  0  0  0  0  2  2  0  0 >   10070.32 
 VCI[4] |  0  0  0  0  0  0  0  4  0 >   10175.16 
 VCI[4] |  0  0  0  0  0  1  2  0  1 >   10211.92 
 VCI[4] |  0  0  0  0  0  2  1  1  0 >   10223.67 
 VCI[4] |  0  0  0  0  0  4  0  0  0 >   10247.60 
 VCI[4] |  0  0  0  0  0  3  0  0  1 >   10255.64 
 VCI[4] |  0  0  0  0  0  3  0  1  0 >   10302.03 
 VCI[4] |  0  0  0  0  0  0  0  1  3 >   10715.92 
 VCI[4] |  0  0  0  0  0  0  0  4  0 >   10755.78 
 VCI[4] |  0  0  0  0  0  1  3  0  0 >   10808.39 
 VCI[4] |  0  0  0  0  0  4  0  0  0 >   10879.00 
 -----------------------------------------------------------
 VCI[4] construnction time:  CPU    8.85 s  wall    8.85 s
 -----------------------------------------------------------
 VCI time:                    CPU   10.28 s  wall    9.74 s
 ----------------------------------------------------------------
             Standard Nuclear Orientation (Angstroms)
    I     Atom           X                Y                Z
 ----------------------------------------------------------------
    1      Si      0.0000132189    -0.0000183525     0.0000316899
    2      H       1.3374969964    -0.3665948366     0.5052978780
    3      H       0.1418068489     0.7856002642    -1.2409654869
    4      H      -0.7057117292     0.8065467811     1.0143548522
    5      H      -0.7737771803    -1.2252952738    -0.2791309017
 ----------------------------------------------------------------
 Nuclear Repulsion Energy =          21.39810923 hartrees
 There are        9 alpha and        9 beta electrons

 = Finishing finite difference calculation for ANHAR =
 =====================================================
 =====================================================
 Requested basis set is def2-TZVP
 There are 29 shells and 61 basis functions
 **********************************************************************
 **                                                                  **
 **                       VIBRATIONAL ANALYSIS                       **
 **                       --------------------                       **
 **                                                                  **
 **        VIBRATIONAL FREQUENCIES (CM**-1) AND NORMAL MODES         **
 **     FORCE CONSTANTS (mDYN/ANGSTROM) AND REDUCED MASSES (AMU)     **
 **                  INFRARED INTENSITIES (KM/MOL)                   **
 **                                                                  **
 **********************************************************************
 

 Mode:                 1                      2                      3
 Frequency:       939.18                 940.21                 940.83
 Force Cnst:      0.5694                 0.5707                 0.5714
 Red. Mass:       1.0957                 1.0957                 1.0956
 IR Active:          YES                    YES                    YES
 IR Intens:      141.239                141.061                140.883
 Raman Active:       YES                    YES                    YES
               X      Y      Z        X      Y      Z        X      Y      Z
 Si        -0.039  0.041 -0.006   -0.021 -0.027 -0.046   -0.036 -0.030  0.033
 H         -0.063 -0.297 -0.132   -0.064  0.366  0.385    0.249  0.365 -0.415
 H          0.458 -0.301 -0.154    0.247  0.417  0.278    0.340  0.031  0.091
 H          0.215 -0.213  0.351    0.419  0.060  0.213    0.246  0.455 -0.170
 H          0.487 -0.321  0.093   -0.026 -0.105  0.401    0.151 -0.023 -0.430
 TransDip  -0.263  0.272 -0.038   -0.139 -0.177 -0.307   -0.237 -0.198  0.222

 Mode:                 4                      5                      6
 Frequency:       987.97                 989.40                2279.20
 Force Cnst:      0.5796                 0.5813                 3.1138
 Red. Mass:       1.0078                 1.0079                 1.0174
 IR Active:          YES                    YES                    YES
 IR Intens:        0.031                  0.102                 28.528
 Raman Active:       YES                    YES                    YES
               X      Y      Z        X      Y      Z        X      Y      Z
 Si         0.001  0.000 -0.000    0.001 -0.000 -0.001    0.009 -0.014 -0.009
 H          0.070  0.467  0.154    0.196  0.109 -0.434    0.230 -0.067  0.082
 H          0.118 -0.416 -0.251    0.467  0.087  0.108    0.043  0.214 -0.350
 H          0.130 -0.331  0.353   -0.426 -0.268 -0.084   -0.398  0.453  0.573
 H         -0.339  0.273 -0.252   -0.274  0.077  0.427   -0.136 -0.225 -0.053
 TransDip   0.005  0.002 -0.001    0.009 -0.001 -0.004    0.086 -0.123 -0.083

 Mode:                 7                      8                      9
 Frequency:      2280.82                2282.20                2282.95
 Force Cnst:      3.2079                 3.2096                 3.2264
 Red. Mass:       1.0466                 1.0459                 1.0507
 IR Active:          YES                    YES                    YES
 IR Intens:      110.928                109.391                122.381
 Raman Active:       YES                    YES                    YES
               X      Y      Z        X      Y      Z        X      Y      Z
 Si         0.013  0.001 -0.035    0.001 -0.037  0.005   -0.037 -0.004 -0.015
 H         -0.137  0.039 -0.068   -0.390  0.093 -0.146    0.775 -0.219  0.293
 H         -0.077 -0.454  0.704    0.034  0.169 -0.287   -0.024 -0.057  0.081
 H         -0.238  0.278  0.335   -0.103  0.104  0.150    0.009 -0.027 -0.037
 H          0.079  0.118  0.013    0.433  0.669  0.158    0.254  0.422  0.091
 TransDip   0.120  0.007 -0.315    0.007 -0.332  0.040   -0.324 -0.038 -0.138

 ======================================================================
                     VIBRATIONAL ANHARMONIC ANALYSIS                   
                     -------------------------------                   
 WARNING! Low frequency modes less than  300 are treated as rotation
 No anharmonic shift applied, please see IGNORE_LOW_FREQ for more details.
 WARNING! THESE RESULTS ARE CALCULATED WTIHOUT Eta_ijk AND Eta_ijkl
                                                                       
 TOSH[ 1]   925.58    VPT2[ 1]   925.43
 TOSH[ 2]   915.50    VPT2[ 2]   915.27
 TOSH[ 3]   913.09    VPT2[ 3]   913.03
 TOSH[ 4]   972.18    VPT2[ 4]   971.62
 TOSH[ 5]   963.36    VPT2[ 5]   962.87
 TOSH[ 6]  2223.82    VPT2[ 6]  2207.84
 TOSH[ 7]  2204.39    VPT2[ 7]  2200.11
 TOSH[ 8]  2217.49    VPT2[ 8]  2197.88
 TOSH[ 9]  2194.40    VPT2[ 9]  2192.81

 VCI[ 1]mode[ 1]=  1.00 quanta *  962.42
 VCI[ 1]mode[ 2]=  1.00 quanta *  951.93
 VCI[ 1]mode[ 3]=  1.00 quanta *  949.84
 VCI[ 1]mode[ 4]=  1.00 quanta * 1013.53
 VCI[ 1]mode[ 5]=  1.00 quanta * 1004.58
 VCI[ 1]mode[ 6]=  0.93 quanta * 2419.43
 VCI[ 1]mode[ 7]=  0.82 quanta * 2383.41
 VCI[ 1]mode[ 8]=  0.72 quanta * 2371.43
 VCI[ 1]mode[ 9]=  0.89 quanta * 2362.59

 VCI[ 2]mode[ 1]=  0.99 quanta *  927.26
 VCI[ 2]mode[ 2]=  0.99 quanta *  916.95
 VCI[ 2]mode[ 3]=  0.99 quanta *  914.64
 VCI[ 2]mode[ 4]=  0.99 quanta *  973.42
 VCI[ 2]mode[ 5]=  0.99 quanta *  964.69
 VCI[ 2]mode[ 6]=  0.83 quanta * 2246.95
 VCI[ 2]mode[ 7]=  0.83 quanta * 2234.14
 VCI[ 2]mode[ 8]=  0.89 quanta * 2226.11
 VCI[ 2]mode[ 9]=  0.85 quanta * 2217.47

 VCI[ 3]mode[ 1]=  0.99 quanta *  944.64
 VCI[ 3]mode[ 2]=  0.99 quanta *  933.76
 VCI[ 3]mode[ 3]=  0.99 quanta *  931.20
 VCI[ 3]mode[ 4]=  0.99 quanta *  990.58
 VCI[ 3]mode[ 5]=  0.99 quanta *  981.38
 VCI[ 3]mode[ 6]=  0.82 quanta * 2255.42
 VCI[ 3]mode[ 7]=  0.84 quanta * 2243.32
 VCI[ 3]mode[ 8]=  0.92 quanta * 2235.77
 VCI[ 3]mode[ 9]=  0.83 quanta * 2225.97

 VCI[ 4]mode[ 1]=  0.99 quanta *  925.06
 VCI[ 4]mode[ 2]=  0.99 quanta *  914.21
 VCI[ 4]mode[ 3]=  0.99 quanta *  911.56
 VCI[ 4]mode[ 4]=  0.99 quanta *  971.33
 VCI[ 4]mode[ 5]=  0.99 quanta *  962.10
 VCI[ 4]mode[ 6]=  0.81 quanta * 2228.13
 VCI[ 4]mode[ 7]=  0.82 quanta * 2214.96
 VCI[ 4]mode[ 8]=  0.92 quanta * 2207.28
 VCI[ 4]mode[ 9]=  0.82 quanta * 2196.14

 ======================================================================

 STANDARD THERMODYNAMIC QUANTITIES AT   298.15 K  AND     1.00 ATM

   This Molecule has  0 Imaginary Frequencies
   Zero point vibrational energy:       19.904 kcal/mol

   Atom    1 Element Si Has Mass   27.97693
   Atom    2 Element H  Has Mass    1.00783
   Atom    3 Element H  Has Mass    1.00783
   Atom    4 Element H  Has Mass    1.00783
   Atom    5 Element H  Has Mass    1.00783
   Molecular Mass:    32.008250 amu
   Principal axes and moments of inertia in amu*Bohr^2:
                             1           2           3
    Eigenvalues --       20.89442    20.90285    20.90744
          X               1.00000     0.00000    -0.00000
          Y              -0.00000     1.00000     0.00000
          Z               0.00000    -0.00000     1.00000
   Rotational Symmetry Number is   1
   The Molecule is an Asymmetric Top
   Translational Enthalpy:        0.889 kcal/mol
   Rotational Enthalpy:           0.889 kcal/mol
   Vibrational Enthalpy:         20.040 kcal/mol
   gas constant (RT):             0.592 kcal/mol
   Translational Entropy:        36.322  cal/mol.K
   Rotational Entropy:           16.864  cal/mol.K
   Vibrational Entropy:           0.554  cal/mol.K

   Total Enthalpy:               22.410 kcal/mol
   Total Entropy:                53.740  cal/mol.K

 ======================================================================

 STANDARD THERMODYNAMIC QUANTITIES FOR ANHARMONIC VIBRATION -- TOSH

   Zero point vibrational energy:       19.342 kcal/mol

   Vibrational Enthalpy:         19.490 kcal/mol
   Vibrational Entropy:           0.605  cal/mol.K

   Total Enthalpy:               21.860 kcal/mol
   Total Entropy:                53.791  cal/mol.K

 ======================================================================

 STANDARD THERMODYNAMIC QUANTITIES FOR ANHARMONIC VIBRATION -- VPT2

   Zero point vibrational energy:       19.280 kcal/mol

   Vibrational Enthalpy:         19.429 kcal/mol
   Vibrational Entropy:           0.606  cal/mol.K

   Total Enthalpy:               21.798 kcal/mol
   Total Entropy:                53.792  cal/mol.K

 ======================================================================

 STANDARD THERMODYNAMIC QUANTITIES FOR ANHARMONIC VIBRATION -- VCI 4

   Zero point vibrational energy:       19.343 kcal/mol

   Vibrational Enthalpy:         19.492 kcal/mol
   Vibrational Entropy:           0.608  cal/mol.K

   Total Enthalpy:               21.862 kcal/mol
   Total Entropy:                53.794  cal/mol.K

 ======================================================================
 
Archival summary:
1\1\gadi-cpu-clx-0263.gadi.nci.org.au\FREQ\ProcedureUnspecified\BasisUnspecified\i14\pk8622\TueJun2322:10:162020TueJun2322:10:162020\0\\#,FREQ,ProcedureUnspecified,BasisUnspecified,\\0,1\Si\H,1,1.47559\H,1,1.47562,2,109.454\H,1,1.4758,2,109.471,3,119.97,0\H,1,1.47599,2,109.454,3,-120.015,0\\\@

 Total job time:  832.23s(wall), 3243.04s(cpu) 
 Tue Jun 23 22:10:16 2020

        *************************************************************
        *                                                           *
        *  Thank you very much for using Q-Chem.  Have a nice day.  *
        *                                                           *
        *************************************************************


