                  Welcome to Q-Chem
     A Quantum Leap Into The Future Of Chemistry


 Q-Chem 5.2 (devel), Q-Chem, Inc., Pleasanton, CA (2019)

 Yihan Shao,  Zhengting Gan,  E. Epifanovsky,  A. T. B. Gilbert,  M. Wormit,  
 J. Kussmann,  A. W. Lange,  A. Behn,  Jia Deng,  Xintian Feng,  D. Ghosh,  
 M. Goldey,  P. R. Horn,  L. D. Jacobson,  I. Kaliman,  T. Kus,  A. Landau,  
 Jie Liu,  E. I. Proynov,  R. M. Richard,  R. P. Steele,  E. J. Sundstrom,  
 H. L. Woodcock III,  P. M. Zimmerman,  D. Zuev,  B. Albrecht,  E. Alguire,  
 S. A. Baeppler,  D. Barton,  Z. Benda,  Y. A. Bernard,  E. J. Berquist,  
 K. B. Bravaya,  H. Burton,  D. Casanova,  Chun-Min Chang,  Yunqing Chen,  
 A. Chien,  K. D. Closser,  M. P. Coons,  S. Coriani,  S. Dasgupta,  
 A. L. Dempwolff,  M. Diedenhofen,  Hainam Do,  R. G. Edgar,  Po-Tung Fang,  
 S. Faraji,  S. Fatehi,  Qingguo Feng,  K. D. Fenk,  J. Fosso-Tande,  
 J. Gayvert,  Qinghui Ge,  A. Ghysels,  G. Gidofalvi,  J. Gomes,  
 J. Gonthier,  A. Gunina,  D. Hait,  M. W. D. Hanson-Heine,  
 P. H. P. Harbach,  A. W. Hauser,  M. F. Herbst,  J. E. Herr,  
 E. G. Hohenstein,  Z. C. Holden,  Kerwin Hui,  B. C. Huynh,  T.-C. Jagau,  
 Hyunjun Ji,  B. Kaduk,  K. Khistyaev,  Jaehoon Kim,  P. Klunzinger,  K. Koh,  
 D. Kosenkov,  L. Koulias,  T. Kowalczyk,  C. M. Krauter,  A. Kunitsa,  
 Ka Un Lao,  A. Laurent,  K. V. Lawler,  Joonho Lee,  D. Lefrancois,  
 S. Lehtola,  D. S. Levine,  Yi-Pei Li,  You-Sheng Lin,  Fenglai Liu,  
 E. Livshits,  A. Luenser,  P. Manohar,  E. Mansoor,  S. F. Manzer,  
 Shan-Ping Mao,  Yuezhi Mao,  N. Mardirossian,  A. V. Marenich,  
 T. Markovich,  L. A. Martinez-Martinez,  S. A. Maurer,  N. J. Mayhall,  
 S. C. McKenzie,  J.-M. Mewes,  P. Morgante,  A. F. Morrison,  
 J. W. Mullinax,  K. Nanda,  T. S. Nguyen-Beck,  R. Olivares-Amaya,  
 J. A. Parkhill,  Zheng Pei,  T. M. Perrine,  F. Plasser,  P. Pokhilko,  
 S. Prager,  A. Prociuk,  E. Ramos,  D. R. Rehn,  F. Rob,  M. Scheurer,  
 M. Schneider,  N. Sergueev,  S. M. Sharada,  S. Sharma,  D. W. Small,  
 T. Stauch,  T. Stein,  Yu-Chuan Su,  A. J. W. Thom,  A. Tkatchenko,  
 T. Tsuchimochi,  N. M. Tubman,  L. Vogt,  M. L. Vidal,  O. Vydrov,  
 M. A. Watson,  J. Wenzel,  M. de Wergifosse,  T. A. Wesolowski,  A. White,  
 J. Witte,  A. Yamada,  Jun Yang,  K. Yao,  S. Yeganeh,  S. R. Yost,  
 Zhi-Qiang You,  A. Zech,  Igor Ying Zhang,  Xing Zhang,  Yan Zhao,  
 Ying Zhu,  B. R. Brooks,  G. K. L. Chan,  C. J. Cramer,  M. S. Gordon,  
 W. J. Hehre,  A. Klamt,  M. W. Schmidt,  C. D. Sherrill,  D. G. Truhlar,  
 A. Aspuru-Guzik,  R. Baer,  A. T. Bell,  N. A. Besley,  Jeng-Da Chai,  
 A. E. DePrince, III,  R. A. DiStasio Jr.,  A. Dreuw,  B. D. Dunietz,  
 T. R. Furlani,  Chao-Ping Hsu,  Yousung Jung,  Jing Kong,  D. S. Lambrecht,  
 WanZhen Liang,  C. Ochsenfeld,  V. A. Rassolov,  L. V. Slipchenko,  
 J. E. Subotnik,  T. Van Voorhis,  J. M. Herbert,  A. I. Krylov,  
 P. M. W. Gill,  M. Head-Gordon

 Contributors to earlier versions of Q-Chem not listed above: 
 R. D. Adamson,  B. Austin,  J. Baker,  G. J. O. Beran,  K. Brandhorst,  
 S. T. Brown,  E. F. C. Byrd,  A. K. Chakraborty,  C.-L. Cheng,  
 Siu Hung Chien,  D. M. Chipman,  D. L. Crittenden,  H. Dachsel,  
 R. J. Doerksen,  A. D. Dutoi,  L. Fusti-Molnar,  W. A. Goddard III,  
 A. Golubeva-Zadorozhnaya,  S. R. Gwaltney,  G. Hawkins,  A. Heyden,  
 S. Hirata,  G. Kedziora,  F. J. Keil,  C. Kelley,  Jihan Kim,  R. A. King,  
 R. Z. Khaliullin,  P. P. Korambath,  W. Kurlancheek,  A. M. Lee,  M. S. Lee,  
 S. V. Levchenko,  Ching Yeh Lin,  D. Liotard,  R. C. Lochan,  I. Lotan,  
 P. E. Maslen,  N. Nair,  D. P. O'Neill,  D. Neuhauser,  E. Neuscamman,  
 C. M. Oana,  R. Olson,  B. Peters,  R. Peverati,  P. A. Pieniazek,  
 Y. M. Rhee,  J. Ritchie,  M. A. Rohrdanz,  E. Rosta,  N. J. Russ,  
 H. F. Schaefer III,  N. E. Schultz,  N. Shenvi,  A. C. Simmonett,  A. Sodt,  
 D. Stuck,  K. S. Thanthiriwatte,  V. Vanovschi,  Tao Wang,  A. Warshel,  
 C. F. Williams,  Q. Wu,  X. Xu,  W. Zhang

 Please cite Q-Chem as follows:
 Y. Shao et al., Mol. Phys. 113, 184-215 (2015)
 DOI: 10.1080/00268976.2014.952696

 Q-Chem 5.2.0 for Intel X86 EM64T Linux

 Parts of Q-Chem use Armadillo 8.300.2 (Tropical Shenanigans).
 http://arma.sourceforge.net/

 Q-Chem begins on Mon Jun 22 10:23:39 2020  

Host: gadi-cpu-clx-0861.gadi.nci.org.au
0

     Scratch files written to /jobfs/7491019.gadi-pbs/qchem31803//
NAlpha2: 66
NElect   66
Mult     1

Checking the input file for inconsistencies... 	...done.

--------------------------------------------------------------
User input:
--------------------------------------------------------------
$comment
	geom opt + anharmonic freq analysis for CCl3F
$end

$molecule
0 1
C	-1.2505130	 0.3116482	-0.8882340
Cl	-2.9483449	-0.1358539	-1.1681284
Cl	-1.1573913	 2.0274760	-0.4316209
Cl	-0.5825504	-0.6874316	 0.4220705
F	-0.5226464	 0.1024401	-2.0436727
$end

$rem
	JOBTYPE	OPT
	METHOD	M06
	BASIS	def2-TZVP
$end

--------------------------------------------------------------
 Atom   1: (  0.0000000143, -0.0000000357, -0.2695765621)
         ->( -0.0000000119, -0.0000000151, -0.2695765621)
 Atom   1: ( -0.0000000119, -0.0000000151, -0.2695765621)
         ->(  0.0000000036, -0.0000000089, -0.2695765621)
 Atom   1: (  0.0000000036, -0.0000000089, -0.2695765621)
         ->(  0.0000000036,  0.0000000000, -0.2695765621)
 Atom   1: (  0.0000000036,  0.0000000000, -0.2695765621)
         ->(  0.0000000009,  0.0000000015, -0.2695765621)
 Atom   3: ( -0.8381504964, -1.4517191710,  0.3230847974)
         ->( -0.8381504475, -1.4517191594,  0.3230848274)
 Atom   4: ( -0.8381504362,  1.4517191947,  0.3230847771)
         ->( -0.8381504475,  1.4517191594,  0.3230848274)
 Atom   5: (  0.0000000616, -0.0000000210, -1.6510961624)
         ->(  0.0000000063, -0.0000000319, -1.6510961624)
 Atom   5: (  0.0000000063, -0.0000000319, -1.6510961624)
         ->(  0.0000000154, -0.0000000052, -1.6510961624)
 Atom   5: (  0.0000000154, -0.0000000052, -1.6510961624)
         ->(  0.0000000154,  0.0000000000, -1.6510961624)
 Atom   5: (  0.0000000154,  0.0000000000, -1.6510961624)
         ->(  0.0000000038,  0.0000000067, -1.6510961624)
 Atom   5: (  0.0000000038,  0.0000000067, -1.6510961624)
         ->( -0.0000000019,  0.0000000033, -1.6510961624)
 ----------------------------------------------------------------
             Standard Nuclear Orientation (Angstroms)
    I     Atom           X                Y                Z
 ----------------------------------------------------------------
    1      C       0.0000000009     0.0000000015    -0.2695765621
    2      Cl      1.6763008950     0.0000000000     0.3230848274
    3      Cl     -0.8381504475    -1.4517191594     0.3230848274
    4      Cl     -0.8381504475     1.4517191594     0.3230848274
    5      F      -0.0000000019     0.0000000033    -1.6510961624
 ----------------------------------------------------------------
 Molecular Point Group                 C3v   NOp =  6
 Largest Abelian Subgroup              Cs    NOp =  2
 Nuclear Repulsion Energy =         363.56242507 hartrees
 There are       33 alpha and       33 beta electrons

 Q-Chem warning in module 0, line  323:

 turning symmetry off for DFT job

 Requested basis set is def2-TZVP
 There are 61 shells and 173 basis functions

 Total QAlloc Memory Limit   2000 MB
 Mega-Array Size       188 MB
 MEM_STATIC part       192 MB
 A cutoff of  1.0D-11 yielded   1709 shell pairs
 There are     14609 function pairs (     19351 Cartesian)
 Smallest overlap matrix eigenvalue = 2.47E-03

 Scale SEOQF with 1.000000e-01/1.000000e-01/1.000000e-01

 Standard Electronic Orientation quadrupole field applied
 Nucleus-field energy     =     0.0000000044 hartrees
 Guess from superposition of atomic densities
 Warning:  Energy on first SCF cycle will be non-variational
 SAD guess density has 66.000000 electrons

 -----------------------------------------------------------------------
  General SCF calculation program by
  Eric Jon Sundstrom, Paul Horn, Yuezhi Mao, Dmitri Zuev, Alec White,
  David Stuck, Shaama M.S., Shane Yost, Joonho Lee, David Small,
  Daniel Levine, Susi Lehtola, Hugh Burton, Evgeny Epifanovsky
 -----------------------------------------------------------------------
 Exchange:     0.2700 Hartree-Fock + 1.0000 M06
 Correlation:  1.0000 M06
 Using SG-3 standard quadrature grid
 using 4 threads for integral computing
 -------------------------------------------------------
 OpenMP Integral computing Module                
 Release: version 2.0, May 2017, Q-Chem Inc. Pleasanton 
 -------------------------------------------------------
 A restricted SCF calculation will be
 performed using DIIS
 SCF converges when DIIS error is below 1.0e-08
 ---------------------------------------
  Cycle       Energy         DIIS error
 ---------------------------------------
    1   -1519.0835478189      3.11e-02  
    2   -1518.3971469216      5.10e-03  
    3   -1518.1940777120      1.01e-02  
    4   -1518.4757556384      4.71e-04  
    5   -1518.4760472344      3.32e-04  
    6   -1518.4763767843      8.81e-05  
    7   -1518.4763949903      1.52e-05  
    8   -1518.4763955957      3.42e-06  
    9   -1518.4763956354      9.37e-07  
   10   -1518.4763956385      9.86e-08  
   11   -1518.4763956382      1.45e-08  
   12   -1518.4763956381      3.31e-09  Convergence criterion met
 ---------------------------------------
 SCF time:   CPU 67.61s  wall 18.00s 
 SCF   energy in the final basis set =    -1518.4763956381
 Total energy in the final basis set =    -1518.4763956381
 
 --------------------------------------------------------------
             Orbital Energies (a.u.) and Symmetries
 --------------------------------------------------------------
 Warning : Irrep of orbital(   1) could not be determined
 Warning : Irrep of orbital(   2) could not be determined
 Warning : Irrep of orbital(   3) could not be determined
 Warning : Irrep of orbital(   6) could not be determined
 Warning : Irrep of orbital(   7) could not be determined
 Warning : Irrep of orbital(   8) could not be determined
 Warning : Irrep of orbital(   9) could not be determined
 Warning : Irrep of orbital(  10) could not be determined
 Warning : Irrep of orbital(  11) could not be determined
 Warning : Irrep of orbital(  12) could not be determined
 Warning : Irrep of orbital(  13) could not be determined
 Warning : Irrep of orbital(  14) could not be determined
 Warning : Irrep of orbital(  15) could not be determined
 Warning : Irrep of orbital(  16) could not be determined
 Warning : Irrep of orbital(  17) could not be determined
 Warning : Irrep of orbital(  50) could not be determined
 Warning : Irrep of orbital(  51) could not be determined
 Warning : Irrep of orbital(  52) could not be determined
 
 Alpha MOs, Restricted
 -- Occupied --                  
-101.75 -101.75 -101.75  -24.83  -10.51   -9.62   -9.62   -9.62
  0 xxx   0 xxx   0 xxx   1 A1    2 A1    0 xxx   0 xxx   0 xxx                
 -7.334  -7.334  -7.334  -7.324  -7.324  -7.324  -7.324  -7.323
  0 xxx   0 xxx   0 xxx   0 xxx   0 xxx   0 xxx   0 xxx   0 xxx                
 -7.323  -1.302  -0.965  -0.881  -0.881  -0.684  -0.573  -0.553
  0 xxx   3 A1    4 A1    1 E     1 E     5 A1    6 A1    2 E                  
 -0.553  -0.449  -0.448  -0.390  -0.378  -0.378  -0.348  -0.348
  2 E     3 E     3 E     7 A1    4 E     4 E     5 E     5 E                  
 -0.334
  1 A2                                                                         
 -- Virtual --                   
 -0.051   0.000   0.001   0.060   0.129   0.192   0.192   0.246
  8 A1    6 E     6 E     9 A1   10 A1    7 E     7 E    11 A1                 
  0.269   0.269   0.314   0.314   0.334   0.334   0.337   0.342
  8 E     8 E     9 E     9 E    10 E    10 E    12 A1   13 A1                 
  0.353   0.353   0.354   0.376   0.410   0.411   0.433   0.456
  0 xxx   0 xxx   0 xxx  14 A1   11 E    11 E     2 A2   15 A1                 
  0.468   0.468   0.567   0.567   0.609   0.625   0.625   0.656
 12 E    12 E    13 E    13 E     3 A2   14 E    14 E    16 A1                 
  0.759   0.768   0.769   0.927   0.947   0.947   0.983   0.983
 17 A1   15 E    15 E    18 A1   16 E    16 E    17 E    17 E                  
  1.027   1.046   1.046   1.055   1.425   1.636   1.636   1.668
 19 A1   18 E    18 E    20 A1   21 A1   19 E    19 E    22 A1                 
  1.678   1.678   1.719   1.738   1.739   1.747   1.757   1.757
 20 E    20 E    23 A1   21 E    21 E     4 A2   22 E    22 E                  
  1.768   1.775   1.775   1.836   1.881   1.881   1.884   1.913
 24 A1   23 E    23 E     5 A2   24 E    24 E    25 A1   25 E                  
  1.913   1.953   2.025   2.025   2.057   2.062   2.063   2.065
 25 E     6 A2   26 E    26 E    26 A1   27 E    27 E    28 E                  
  2.065   2.067   2.107   2.107   2.150   2.151   2.175   2.175
 28 E     7 A2   29 E    29 E    30 E    30 E    31 E    31 E                  
  2.184   2.184   2.205   2.205   2.222   2.224   2.224   2.242
 27 A1    8 A2   32 E    32 E    28 A1   33 E    33 E     9 A2                 
  2.287   2.449   2.509   2.509   2.571   2.761   2.761   2.976
 29 A1   30 A1   34 E    34 E    31 A1   35 E    35 E    32 A1                 
  2.986   2.986   3.144   3.144   3.254   3.412   3.427   3.427
 36 E    36 E    37 E    37 E    33 A1   10 A2   38 E    38 E                  
  3.492   3.492   3.525   3.750   3.750   3.905   3.916   3.916
 39 E    39 E    34 A1   40 E    40 E    35 A1   41 E    41 E                  
  4.101   5.102   6.858   6.859   6.940   6.940   7.168   7.168
 36 A1   37 A1   11 A2   38 A1   42 E    42 E    43 E    43 E                  
  7.225   8.384   8.384   8.799   8.799   9.012  10.785  10.790
 39 A1   44 E    44 E    45 E    45 E    40 A1   12 A2   46 E                  
 10.790  10.800  10.854  10.854  11.285  11.285  11.351  21.700
 46 E    41 A1   47 E    47 E    48 E    48 E    42 A1   43 A1                 
 25.114  25.115  25.230  57.006
 49 E    49 E    44 A1   45 A1                                                 
 
 Beta MOs, Restricted
 -- Occupied --                  
-101.75 -101.75 -101.75  -24.83  -10.51   -9.62   -9.62   -9.62
  0 xxx   0 xxx   0 xxx   1 A1    2 A1    0 xxx   0 xxx   0 xxx                
 -7.334  -7.334  -7.334  -7.324  -7.324  -7.324  -7.324  -7.323
  0 xxx   0 xxx   0 xxx   0 xxx   0 xxx   0 xxx   0 xxx   0 xxx                
 -7.323  -1.302  -0.965  -0.881  -0.881  -0.684  -0.573  -0.553
  0 xxx   3 A1    4 A1    1 E     1 E     5 A1    6 A1    2 E                  
 -0.553  -0.449  -0.448  -0.390  -0.378  -0.378  -0.348  -0.348
  2 E     3 E     3 E     7 A1    4 E     4 E     5 E     5 E                  
 -0.334
  1 A2                                                                         
 -- Virtual --                   
 -0.051   0.000   0.001   0.060   0.129   0.192   0.192   0.246
  8 A1    6 E     6 E     9 A1   10 A1    7 E     7 E    11 A1                 
  0.269   0.269   0.314   0.314   0.334   0.334   0.337   0.342
  8 E     8 E     9 E     9 E    10 E    10 E    12 A1   13 A1                 
  0.353   0.353   0.354   0.376   0.410   0.411   0.433   0.456
  0 xxx   0 xxx   0 xxx  14 A1   11 E    11 E     2 A2   15 A1                 
  0.468   0.468   0.567   0.567   0.609   0.625   0.625   0.656
 12 E    12 E    13 E    13 E     3 A2   14 E    14 E    16 A1                 
  0.759   0.768   0.769   0.927   0.947   0.947   0.983   0.983
 17 A1   15 E    15 E    18 A1   16 E    16 E    17 E    17 E                  
  1.027   1.046   1.046   1.055   1.425   1.636   1.636   1.668
 19 A1   18 E    18 E    20 A1   21 A1   19 E    19 E    22 A1                 
  1.678   1.678   1.719   1.738   1.739   1.747   1.757   1.757
 20 E    20 E    23 A1   21 E    21 E     4 A2   22 E    22 E                  
  1.768   1.775   1.775   1.836   1.881   1.881   1.884   1.913
 24 A1   23 E    23 E     5 A2   24 E    24 E    25 A1   25 E                  
  1.913   1.953   2.025   2.025   2.057   2.062   2.063   2.065
 25 E     6 A2   26 E    26 E    26 A1   27 E    27 E    28 E                  
  2.065   2.067   2.107   2.107   2.150   2.151   2.175   2.175
 28 E     7 A2   29 E    29 E    30 E    30 E    31 E    31 E                  
  2.184   2.184   2.205   2.205   2.222   2.224   2.224   2.242
 27 A1    8 A2   32 E    32 E    28 A1   33 E    33 E     9 A2                 
  2.287   2.449   2.509   2.509   2.571   2.761   2.761   2.976
 29 A1   30 A1   34 E    34 E    31 A1   35 E    35 E    32 A1                 
  2.986   2.986   3.144   3.144   3.254   3.412   3.427   3.427
 36 E    36 E    37 E    37 E    33 A1   10 A2   38 E    38 E                  
  3.492   3.492   3.525   3.750   3.750   3.905   3.916   3.916
 39 E    39 E    34 A1   40 E    40 E    35 A1   41 E    41 E                  
  4.101   5.102   6.858   6.859   6.940   6.940   7.168   7.168
 36 A1   37 A1   11 A2   38 A1   42 E    42 E    43 E    43 E                  
  7.225   8.384   8.384   8.799   8.799   9.012  10.785  10.790
 39 A1   44 E    44 E    45 E    45 E    40 A1   12 A2   46 E                  
 10.790  10.800  10.854  10.854  11.285  11.285  11.351  21.700
 46 E    41 A1   47 E    47 E    48 E    48 E    42 A1   43 A1                 
 25.114  25.115  25.230  57.006
 49 E    49 E    44 A1   45 A1                                                 
 --------------------------------------------------------------
 
          Ground-State Mulliken Net Atomic Charges

     Atom                 Charge (a.u.)
  ----------------------------------------
      1 C                     0.323066
      2 Cl                   -0.047500
      3 Cl                   -0.049475
      4 Cl                   -0.049475
      5 F                    -0.176615
  ----------------------------------------
  Sum of atomic charges =     0.000000

 -----------------------------------------------------------------
                    Cartesian Multipole Moments
 -----------------------------------------------------------------
    Charge (ESU x 10^10)
                 0.0000
    Dipole Moment (Debye)
         X      -0.0026      Y       0.0000      Z       0.6005
       Tot       0.6006
    Quadrupole Moments (Debye-Ang)
        XX     -46.1691     XY      -0.0000     YY     -46.1873
        XZ       0.0116     YZ       0.0000     ZZ     -48.6995
    Octopole Moments (Debye-Ang^2)
       XXX       4.6492    XXY      -0.0000    XYY      -4.6605
       YYY      -0.0000    XXZ       0.0350    XYZ      -0.0000
       YYZ       0.0419    XZZ      -0.0004    YZZ      -0.0000
       ZZZ      -5.8651
    Hexadecapole Moments (Debye-Ang^3)
      XXXX    -339.7874   XXXY      -0.0000   XXYY    -113.2668
      XYYY      -0.0000   YYYY    -339.9229   XXXZ       4.9721
      XXYZ       0.0000   XYYZ      -4.9010   YYYZ       0.0000
      XXZZ     -83.6718   XYZZ      -0.0000   YYZZ     -83.6763
      XZZZ       0.0263   YZZZ       0.0000   ZZZZ    -154.4370
 -----------------------------------------------------------------
 Calculating analytic gradient of the SCF energy
 Gradient of SCF Energy
            1           2           3           4           5
    1  -0.0000511   0.0064059  -0.0034712  -0.0034712   0.0005875
    2   0.0000000  -0.0000000  -0.0055954   0.0055954   0.0000000
    3   0.0237580   0.0071701   0.0069767   0.0069767  -0.0448815
 Max gradient component =       4.488E-02
 RMS gradient           =       1.380E-02
 Gradient time:  CPU 16.26 s  wall 4.64 s
 Geometry Optimization Parameters
   NAtoms,    NIC,     NZ,  NCons,   NDum,   NFix, NCnnct, MaxDiis
        5      20       0       0       0       0       0       0


** GEOMETRY OPTIMIZATION IN DELOCALIZED INTERNAL COORDINATES **
   Searching for a Minimum

   Optimization Cycle:   1

                       Coordinates (Angstroms)
     ATOM                X               Y               Z
      1  C         0.0000000000    0.0000000000   -0.2695765621
      2  Cl        1.6763008950    0.0000000000    0.3230848274
      3  Cl       -0.8381504475   -1.4517191594    0.3230848274
      4  Cl       -0.8381504475    1.4517191594    0.3230848274
      5  F         0.0000000000    0.0000000000   -1.6510961624
   Point Group: c3v   Number of degrees of freedom:     3


   Energy is  -1518.476395638


 Attempting to generate delocalized internal coordinates
 Initial Hessian constructed with Jon Baker's OPTIMIZE code

  3 Hessian modes will be used to form the next step
  Hessian Eigenvalues:
     0.250000    0.279306    0.488255

 Minimum search - taking simple RFO step
 Searching for Lamda that Minimizes Along All modes
 Value Taken    Lamda =  -0.00615053
 Step Taken.  Stepsize is  0.126657

                             Maximum     Tolerance    Cnvgd?
         Gradient           0.035186      0.000300      NO
         Displacement       0.090038      0.001200      NO
         Energy change     *********      0.000001      NO


 New Cartesian Coordinates Obtained by Inverse Iteration

 Displacement from previous Coordinates is:  0.175728
 ----------------------------------------------------------------
             Standard Nuclear Orientation (Angstroms)
    I     Atom           X                Y                Z
 ----------------------------------------------------------------
    1      C       0.0000000000     0.0000000000    -0.2462157472
    2      Cl      1.6781931485     0.0000000000     0.2914982717
    3      Cl     -0.8390965742    -1.4533578990     0.2914982717
    4      Cl     -0.8390965742     1.4533578990     0.2914982717
    5      F       0.0000000000     0.0000000000    -1.5796973101
 ----------------------------------------------------------------
 Molecular Point Group                 C3v   NOp =  6
 Largest Abelian Subgroup              Cs    NOp =  2
 Nuclear Repulsion Energy =         367.79247915 hartrees
 There are       33 alpha and       33 beta electrons

 Q-Chem warning in module 0, line  323:

 turning symmetry off for DFT job

 Applying Cartesian multipole field
    Component          Value
    ---------          -----
     (2,0,0)        1.00000E-11
     (0,2,0)        2.00000E-11
     (0,0,2)       -3.00000E-11
 Nucleus-field energy     =     0.0000000048 hartrees
 Requested basis set is def2-TZVP
 There are 61 shells and 173 basis functions
 A cutoff of  1.0D-11 yielded   1715 shell pairs
 There are     14651 function pairs (     19396 Cartesian)
 Smallest overlap matrix eigenvalue = 2.20E-03
 Guess MOs from SCF MO coefficient file

 -----------------------------------------------------------------------
  General SCF calculation program by
  Eric Jon Sundstrom, Paul Horn, Yuezhi Mao, Dmitri Zuev, Alec White,
  David Stuck, Shaama M.S., Shane Yost, Joonho Lee, David Small,
  Daniel Levine, Susi Lehtola, Hugh Burton, Evgeny Epifanovsky
 -----------------------------------------------------------------------
 Exchange:     0.2700 Hartree-Fock + 1.0000 M06
 Correlation:  1.0000 M06
 Using SG-3 standard quadrature grid
 using 4 threads for integral computing
 -------------------------------------------------------
 OpenMP Integral computing Module                
 Release: version 2.0, May 2017, Q-Chem Inc. Pleasanton 
 -------------------------------------------------------
 A restricted SCF calculation will be
 performed using DIIS
 SCF converges when DIIS error is below 1.0e-08
 ---------------------------------------
  Cycle       Energy         DIIS error
 ---------------------------------------
    1   -1518.4773937095      6.90e-04  
    2   -1518.4792726124      2.21e-04  
    3   -1518.4791842976      2.82e-04  
    4   -1518.4794381582      4.15e-05  
    5   -1518.4794439799      1.04e-05  
    6   -1518.4794442768      3.97e-06  
    7   -1518.4794443100      1.32e-06  
    8   -1518.4794443142      3.57e-07  
    9   -1518.4794443149      3.93e-08  
   10   -1518.4794443150      1.12e-08  
   11   -1518.4794443148      2.83e-09  Convergence criterion met
 ---------------------------------------
 SCF time:   CPU 61.26s  wall 16.00s 
 SCF   energy in the final basis set =    -1518.4794443148
 Total energy in the final basis set =    -1518.4794443148
 
 --------------------------------------------------------------
             Orbital Energies (a.u.) and Symmetries
 --------------------------------------------------------------
 Warning : Irrep of orbital(   1) could not be determined
 Warning : Irrep of orbital(   2) could not be determined
 Warning : Irrep of orbital(   3) could not be determined
 Warning : Irrep of orbital(   6) could not be determined
 Warning : Irrep of orbital(   7) could not be determined
 Warning : Irrep of orbital(   8) could not be determined
 Warning : Irrep of orbital(   9) could not be determined
 Warning : Irrep of orbital(  10) could not be determined
 Warning : Irrep of orbital(  11) could not be determined
 Warning : Irrep of orbital(  12) could not be determined
 Warning : Irrep of orbital(  13) could not be determined
 Warning : Irrep of orbital(  14) could not be determined
 Warning : Irrep of orbital(  15) could not be determined
 Warning : Irrep of orbital(  16) could not be determined
 Warning : Irrep of orbital(  17) could not be determined
 Warning : Irrep of orbital(  49) could not be determined
 Warning : Irrep of orbital(  50) could not be determined
 Warning : Irrep of orbital(  51) could not be determined
 Warning : Irrep of orbital( 102) could not be determined
 Warning : Irrep of orbital( 103) could not be determined
 Warning : Irrep of orbital( 104) could not be determined
 Warning : Irrep of orbital( 105) could not be determined
 Warning : Irrep of orbital( 106) could not be determined
 Warning : Irrep of orbital( 107) could not be determined
 
 Alpha MOs, Restricted
 -- Occupied --                  
-101.74 -101.74 -101.74  -24.83  -10.51   -9.62   -9.62   -9.62
  0 xxx   0 xxx   0 xxx   1 A1    2 A1    0 xxx   0 xxx   0 xxx                
 -7.332  -7.331  -7.331  -7.321  -7.321  -7.321  -7.321  -7.321
  0 xxx   0 xxx   0 xxx   0 xxx   0 xxx   0 xxx   0 xxx   0 xxx                
 -7.321  -1.326  -0.965  -0.883  -0.883  -0.690  -0.577  -0.565
  0 xxx   3 A1    4 A1    1 E     1 E     5 A1    6 A1    2 E                  
 -0.565  -0.449  -0.449  -0.387  -0.376  -0.376  -0.348  -0.348
  2 E     3 E     3 E     7 A1    4 E     4 E     5 E     5 E                  
 -0.333
  1 A2                                                                         
 -- Virtual --                   
 -0.046   0.009   0.009   0.084   0.127   0.190   0.191   0.251
  8 A1    6 E     6 E     9 A1   10 A1    7 E     7 E    11 A1                 
  0.269   0.269   0.318   0.318   0.335   0.335   0.340   0.353
  8 E     8 E     9 E     9 E    10 E    10 E    12 A1    0 xxx                
  0.354   0.354   0.355   0.380   0.415   0.415   0.434   0.457
  0 xxx   0 xxx  13 A1   14 A1   11 E    11 E     2 A2   15 A1                 
  0.469   0.469   0.574   0.574   0.609   0.629   0.629   0.664
 12 E    12 E    13 E    13 E     3 A2   14 E    14 E    16 A1                 
  0.764   0.769   0.770   0.924   0.960   0.960   0.986   0.986
 17 A1   15 E    15 E    18 A1   16 E    16 E    17 E    17 E                  
  1.021   1.059   1.065   1.065   1.417   1.636   1.636   1.667
 19 A1   20 A1   18 E    18 E    21 A1   19 E    19 E    22 A1                 
  1.682   1.682   1.716   1.742   1.742   1.747   1.754   1.754
 20 E    20 E    23 A1   21 E    21 E     4 A2   22 E    22 E                  
  1.772   1.775   1.775   1.831   1.882   1.883   1.890   1.919
 24 A1   23 E    23 E     5 A2   24 E    24 E    25 A1   25 E                  
  1.919   1.965   2.028   2.028   2.061   2.063   2.063   2.067
 25 E     6 A2   26 E    26 E     0 xxx   0 xxx   0 xxx   0 xxx                
  2.067   2.067   2.140   2.140   2.171   2.171   2.180   2.185
  0 xxx   0 xxx  27 E    27 E    28 E    28 E     7 A2   29 E                  
  2.186   2.188   2.211   2.211   2.228   2.228   2.242   2.258
 29 E    26 A1   30 E    30 E    31 E    31 E     8 A2   27 A1                 
  2.300   2.461   2.553   2.553   2.585   2.796   2.796   3.009
 28 A1   29 A1   32 E    32 E    30 A1   33 E    33 E    34 E                  
  3.009   3.011   3.145   3.145   3.311   3.453   3.454   3.458
 34 E    31 A1   35 E    35 E    32 A1   36 E    36 E     9 A2                 
  3.501   3.501   3.558   3.829   3.829   3.919   3.919   3.921
 37 E    37 E    33 A1   38 E    38 E    39 E    39 E    34 A1                 
  4.074   5.136   6.851   6.852   6.962   6.962   7.219   7.219
 35 A1   36 A1   10 A2   37 A1   40 E    40 E    41 E    41 E                  
  7.284   8.397   8.397   8.849   8.849   8.998  10.786  10.794
 38 A1   42 E    42 E    43 E    43 E    39 A1   11 A2   44 E                  
 10.794  10.805  10.867  10.867  11.305  11.305  11.360  21.838
 44 E    40 A1   45 E    45 E    46 E    46 E    41 A1   42 A1                 
 25.186  25.186  25.245  57.055
 47 E    47 E    43 A1   44 A1                                                 
 
 Beta MOs, Restricted
 -- Occupied --                  
-101.74 -101.74 -101.74  -24.83  -10.51   -9.62   -9.62   -9.62
  0 xxx   0 xxx   0 xxx   1 A1    2 A1    0 xxx   0 xxx   0 xxx                
 -7.332  -7.331  -7.331  -7.321  -7.321  -7.321  -7.321  -7.321
  0 xxx   0 xxx   0 xxx   0 xxx   0 xxx   0 xxx   0 xxx   0 xxx                
 -7.321  -1.326  -0.965  -0.883  -0.883  -0.690  -0.577  -0.565
  0 xxx   3 A1    4 A1    1 E     1 E     5 A1    6 A1    2 E                  
 -0.565  -0.449  -0.449  -0.387  -0.376  -0.376  -0.348  -0.348
  2 E     3 E     3 E     7 A1    4 E     4 E     5 E     5 E                  
 -0.333
  1 A2                                                                         
 -- Virtual --                   
 -0.046   0.009   0.009   0.084   0.127   0.190   0.191   0.251
  8 A1    6 E     6 E     9 A1   10 A1    7 E     7 E    11 A1                 
  0.269   0.269   0.318   0.318   0.335   0.335   0.340   0.353
  8 E     8 E     9 E     9 E    10 E    10 E    12 A1    0 xxx                
  0.354   0.354   0.355   0.380   0.415   0.415   0.434   0.457
  0 xxx   0 xxx  13 A1   14 A1   11 E    11 E     2 A2   15 A1                 
  0.469   0.469   0.574   0.574   0.609   0.629   0.629   0.664
 12 E    12 E    13 E    13 E     3 A2   14 E    14 E    16 A1                 
  0.764   0.769   0.770   0.924   0.960   0.960   0.986   0.986
 17 A1   15 E    15 E    18 A1   16 E    16 E    17 E    17 E                  
  1.021   1.059   1.065   1.065   1.417   1.636   1.636   1.667
 19 A1   20 A1   18 E    18 E    21 A1   19 E    19 E    22 A1                 
  1.682   1.682   1.716   1.742   1.742   1.747   1.754   1.754
 20 E    20 E    23 A1   21 E    21 E     4 A2   22 E    22 E                  
  1.772   1.775   1.775   1.831   1.882   1.883   1.890   1.919
 24 A1   23 E    23 E     5 A2   24 E    24 E    25 A1   25 E                  
  1.919   1.965   2.028   2.028   2.061   2.063   2.063   2.067
 25 E     6 A2   26 E    26 E     0 xxx   0 xxx   0 xxx   0 xxx                
  2.067   2.067   2.140   2.140   2.171   2.171   2.180   2.185
  0 xxx   0 xxx  27 E    27 E    28 E    28 E     7 A2   29 E                  
  2.186   2.188   2.211   2.211   2.228   2.228   2.242   2.258
 29 E    26 A1   30 E    30 E    31 E    31 E     8 A2   27 A1                 
  2.300   2.461   2.553   2.553   2.585   2.796   2.796   3.009
 28 A1   29 A1   32 E    32 E    30 A1   33 E    33 E    34 E                  
  3.009   3.011   3.145   3.145   3.311   3.453   3.454   3.458
 34 E    31 A1   35 E    35 E    32 A1   36 E    36 E     9 A2                 
  3.501   3.501   3.558   3.829   3.829   3.919   3.919   3.921
 37 E    37 E    33 A1   38 E    38 E    39 E    39 E    34 A1                 
  4.074   5.136   6.851   6.852   6.962   6.962   7.219   7.219
 35 A1   36 A1   10 A2   37 A1   40 E    40 E    41 E    41 E                  
  7.284   8.397   8.397   8.849   8.849   8.998  10.786  10.794
 38 A1   42 E    42 E    43 E    43 E    39 A1   11 A2   44 E                  
 10.794  10.805  10.867  10.867  11.305  11.305  11.360  21.838
 44 E    40 A1   45 E    45 E    46 E    46 E    41 A1   42 A1                 
 25.186  25.186  25.245  57.055
 47 E    47 E    43 A1   44 A1                                                 
 --------------------------------------------------------------
 
          Ground-State Mulliken Net Atomic Charges

     Atom                 Charge (a.u.)
  ----------------------------------------
      1 C                     0.324019
      2 Cl                   -0.052366
      3 Cl                   -0.054117
      4 Cl                   -0.054117
      5 F                    -0.163419
  ----------------------------------------
  Sum of atomic charges =     0.000000

 -----------------------------------------------------------------
                    Cartesian Multipole Moments
 -----------------------------------------------------------------
    Charge (ESU x 10^10)
                 0.0000
    Dipole Moment (Debye)
         X      -0.0026      Y      -0.0000      Z       0.4125
       Tot       0.4125
    Quadrupole Moments (Debye-Ang)
        XX     -46.1659     XY       0.0000     YY     -46.1759
        XZ       0.0133     YZ       0.0000     ZZ     -48.5171
    Octopole Moments (Debye-Ang^2)
       XXX       4.6524    XXY      -0.0000    XYY      -4.6709
       YYY      -0.0000    XXZ       0.1844    XYZ       0.0000
       YYZ       0.1798    XZZ      -0.0033    YZZ       0.0000
       ZZZ      -4.7171
    Hexadecapole Moments (Debye-Ang^3)
      XXXX    -339.9773   XXXY      -0.0000   XXYY    -113.3185
      XYYY       0.0000   YYYY    -340.0425   XXXZ       4.3395
      XXYZ       0.0000   XYYZ      -4.2622   YYYZ       0.0000
      XXZZ     -82.4675   XYZZ      -0.0000   YYZZ     -82.4612
      XZZZ       0.0247   YZZZ       0.0000   ZZZZ    -142.1788
 -----------------------------------------------------------------
 Calculating analytic gradient of the SCF energy
 Gradient of SCF Energy
            1           2           3           4           5
    1   0.0002414  -0.0007037   0.0000990   0.0000990   0.0002642
    2  -0.0000000   0.0000000   0.0004477  -0.0004477  -0.0000000
    3   0.0135295  -0.0024017  -0.0028077  -0.0028077  -0.0055124
 Max gradient component =       1.353E-02
 RMS gradient           =       3.967E-03
 Gradient time:  CPU 16.34 s  wall 4.28 s
 Geometry Optimization Parameters
   NAtoms,    NIC,     NZ,  NCons,   NDum,   NFix, NCnnct, MaxDiis
        5      20       0       0       0       0       0       0

 Cartesian Hessian Update
 Hessian updated using BFGS update


** GEOMETRY OPTIMIZATION IN DELOCALIZED INTERNAL COORDINATES **
   Searching for a Minimum

   Optimization Cycle:   2

                       Coordinates (Angstroms)
     ATOM                X               Y               Z
      1  C         0.0000000000    0.0000000000   -0.2462157472
      2  Cl        1.6781931485    0.0000000000    0.2914982717
      3  Cl       -0.8390965742   -1.4533578990    0.2914982717
      4  Cl       -0.8390965742    1.4533578990    0.2914982717
      5  F         0.0000000000    0.0000000000   -1.5796973101
   Point Group: c3v   Number of degrees of freedom:     3


   Energy is  -1518.479444315

 Hessian updated using BFGS update

  3 Hessian modes will be used to form the next step
  Hessian Eigenvalues:
     0.265357    0.327555    0.420554

 Minimum search - taking simple RFO step
 Searching for Lamda that Minimizes Along All modes
 Value Taken    Lamda =  -0.00043573
 Step Taken.  Stepsize is  0.037371

                             Maximum     Tolerance    Cnvgd?
         Gradient           0.009207      0.000300      NO
         Displacement       0.027796      0.001200      NO
         Energy change     -0.003049      0.000001      NO


 New Cartesian Coordinates Obtained by Inverse Iteration

 Displacement from previous Coordinates is:  0.046230
 ----------------------------------------------------------------
             Standard Nuclear Orientation (Angstroms)
    I     Atom           X                Y                Z
 ----------------------------------------------------------------
    1      C       0.0000000000     0.0000000000    -0.2621434037
    2      Cl      1.6717900865     0.0000000000     0.2991131045
    3      Cl     -0.8358950432    -1.4478126847     0.2991131045
    4      Cl     -0.8358950432     1.4478126847     0.2991131045
    5      F       0.0000000000     0.0000000000    -1.5866141517
 ----------------------------------------------------------------
 Molecular Point Group                 C3v   NOp =  6
 Largest Abelian Subgroup              Cs    NOp =  2
 Nuclear Repulsion Energy =         368.22495866 hartrees
 There are       33 alpha and       33 beta electrons

 Q-Chem warning in module 0, line  323:

 turning symmetry off for DFT job

 Applying Cartesian multipole field
    Component          Value
    ---------          -----
     (2,0,0)        1.00000E-11
     (0,2,0)        2.00000E-11
     (0,0,2)       -3.00000E-11
 Nucleus-field energy     =     0.0000000047 hartrees
 Requested basis set is def2-TZVP
 There are 61 shells and 173 basis functions
 A cutoff of  1.0D-11 yielded   1715 shell pairs
 There are     14651 function pairs (     19396 Cartesian)
 Smallest overlap matrix eigenvalue = 2.18E-03
 Guess MOs from SCF MO coefficient file

 -----------------------------------------------------------------------
  General SCF calculation program by
  Eric Jon Sundstrom, Paul Horn, Yuezhi Mao, Dmitri Zuev, Alec White,
  David Stuck, Shaama M.S., Shane Yost, Joonho Lee, David Small,
  Daniel Levine, Susi Lehtola, Hugh Burton, Evgeny Epifanovsky
 -----------------------------------------------------------------------
 Exchange:     0.2700 Hartree-Fock + 1.0000 M06
 Correlation:  1.0000 M06
 Using SG-3 standard quadrature grid
 using 4 threads for integral computing
 -------------------------------------------------------
 OpenMP Integral computing Module                
 Release: version 2.0, May 2017, Q-Chem Inc. Pleasanton 
 -------------------------------------------------------
 A restricted SCF calculation will be
 performed using DIIS
 SCF converges when DIIS error is below 1.0e-08
 ---------------------------------------
  Cycle       Energy         DIIS error
 ---------------------------------------
    1   -1518.4794521697      2.26e-04  
    2   -1518.4796818573      9.62e-05  
    3   -1518.4796877209      8.54e-05  
    4   -1518.4797031343      1.22e-05  
    5   -1518.4797035105      4.94e-06  
    6   -1518.4797035842      1.84e-06  
    7   -1518.4797035954      5.22e-07  
    8   -1518.4797035967      7.22e-08  
    9   -1518.4797035967      1.54e-08  
   10   -1518.4797035973      3.70e-09  Convergence criterion met
 ---------------------------------------
 SCF time:   CPU 54.98s  wall 14.00s 
 SCF   energy in the final basis set =    -1518.4797035973
 Total energy in the final basis set =    -1518.4797035973
 
 --------------------------------------------------------------
             Orbital Energies (a.u.) and Symmetries
 --------------------------------------------------------------
 Warning : Irrep of orbital(   1) could not be determined
 Warning : Irrep of orbital(   2) could not be determined
 Warning : Irrep of orbital(   3) could not be determined
 Warning : Irrep of orbital(   6) could not be determined
 Warning : Irrep of orbital(   7) could not be determined
 Warning : Irrep of orbital(   8) could not be determined
 Warning : Irrep of orbital(   9) could not be determined
 Warning : Irrep of orbital(  10) could not be determined
 Warning : Irrep of orbital(  11) could not be determined
 Warning : Irrep of orbital(  12) could not be determined
 Warning : Irrep of orbital(  13) could not be determined
 Warning : Irrep of orbital(  14) could not be determined
 Warning : Irrep of orbital(  15) could not be determined
 Warning : Irrep of orbital(  16) could not be determined
 Warning : Irrep of orbital(  17) could not be determined
 Warning : Irrep of orbital(  49) could not be determined
 Warning : Irrep of orbital(  50) could not be determined
 Warning : Irrep of orbital(  51) could not be determined
 Warning : Irrep of orbital( 105) could not be determined
 Warning : Irrep of orbital( 106) could not be determined
 Warning : Irrep of orbital( 107) could not be determined
 Warning : Irrep of orbital( 112) could not be determined
 Warning : Irrep of orbital( 113) could not be determined
 Warning : Irrep of orbital( 114) could not be determined
 Warning : Irrep of orbital( 143) could not be determined
 Warning : Irrep of orbital( 144) could not be determined
 Warning : Irrep of orbital( 145) could not be determined
 
 Alpha MOs, Restricted
 -- Occupied --                  
-101.74 -101.74 -101.74  -24.84  -10.51   -9.62   -9.62   -9.62
  0 xxx   0 xxx   0 xxx   1 A1    2 A1    0 xxx   0 xxx   0 xxx                
 -7.331  -7.331  -7.331  -7.321  -7.321  -7.320  -7.320  -7.320
  0 xxx   0 xxx   0 xxx   0 xxx   0 xxx   0 xxx   0 xxx   0 xxx                
 -7.320  -1.332  -0.966  -0.882  -0.882  -0.693  -0.579  -0.568
  0 xxx   3 A1    4 A1    1 E     1 E     5 A1    6 A1    2 E                  
 -0.568  -0.450  -0.450  -0.388  -0.376  -0.376  -0.347  -0.347
  2 E     3 E     3 E     7 A1    4 E     4 E     5 E     5 E                  
 -0.332
  1 A2                                                                         
 -- Virtual --                   
 -0.045   0.009   0.009   0.087   0.128   0.190   0.191   0.252
  8 A1    6 E     6 E     9 A1   10 A1    7 E     7 E    11 A1                 
  0.269   0.269   0.317   0.317   0.335   0.336   0.339   0.354
  8 E     8 E     9 E     9 E    10 E    10 E    12 A1    0 xxx                
  0.355   0.355   0.357   0.382   0.414   0.415   0.435   0.452
  0 xxx   0 xxx  13 A1   14 A1   11 E    11 E     2 A2   15 A1                 
  0.470   0.470   0.571   0.571   0.612   0.629   0.629   0.665
 12 E    12 E    13 E    13 E     3 A2   14 E    14 E    16 A1                 
  0.766   0.769   0.770   0.923   0.958   0.958   0.985   0.985
 17 A1   15 E    15 E    18 A1   16 E    16 E    17 E    17 E                  
  1.022   1.061   1.061   1.065   1.418   1.636   1.636   1.661
 19 A1   18 E    18 E    20 A1   21 A1   19 E    19 E    22 A1                 
  1.680   1.681   1.717   1.741   1.742   1.748   1.755   1.755
 20 E    20 E    23 A1   21 E    21 E     4 A2   22 E    22 E                  
  1.771   1.776   1.777   1.835   1.884   1.884   1.888   1.921
 24 A1   23 E    23 E     5 A2   24 E    24 E    25 A1   25 E                  
  1.921   1.962   2.029   2.029   2.061   2.064   2.064   2.067
 25 E     6 A2   26 E    26 E    26 A1   27 E    27 E     0 xxx                
  2.067   2.068   2.141   2.141   2.164   2.164   2.188   2.189
  0 xxx   0 xxx  28 E    28 E    29 E    29 E     0 xxx   0 xxx                
  2.189   2.190   2.211   2.211   2.228   2.229   2.244   2.266
  0 xxx   7 A2   30 E    30 E    31 E    31 E     8 A2   27 A1                 
  2.305   2.454   2.546   2.546   2.594   2.796   2.796   3.009
 28 A1   29 A1   32 E    32 E    30 A1   33 E    33 E    34 E                  
  3.009   3.015   3.145   3.145   3.314   3.446   3.458   3.458
 34 E    31 A1   35 E    35 E    32 A1    9 A2   36 E    36 E                  
  3.499   3.499   3.560   3.831   3.831   3.918   3.918   3.919
 37 E    37 E    33 A1   38 E    38 E     0 xxx   0 xxx   0 xxx                
  4.076   5.129   6.847   6.848   6.961   6.961   7.228   7.228
 34 A1   35 A1   10 A2   36 A1   39 E    39 E    40 E    40 E                  
  7.294   8.396   8.396   8.852   8.852   8.993  10.788  10.794
 37 A1   41 E    41 E    42 E    42 E    38 A1   11 A2   43 E                  
 10.794  10.806  10.866  10.866  11.304  11.304  11.360  21.863
 43 E    39 A1   44 E    44 E    45 E    45 E    40 A1   41 A1                 
 25.176  25.176  25.253  57.055
 46 E    46 E    42 A1   43 A1                                                 
 
 Beta MOs, Restricted
 -- Occupied --                  
-101.74 -101.74 -101.74  -24.84  -10.51   -9.62   -9.62   -9.62
  0 xxx   0 xxx   0 xxx   1 A1    2 A1    0 xxx   0 xxx   0 xxx                
 -7.331  -7.331  -7.331  -7.321  -7.321  -7.320  -7.320  -7.320
  0 xxx   0 xxx   0 xxx   0 xxx   0 xxx   0 xxx   0 xxx   0 xxx                
 -7.320  -1.332  -0.966  -0.882  -0.882  -0.693  -0.579  -0.568
  0 xxx   3 A1    4 A1    1 E     1 E     5 A1    6 A1    2 E                  
 -0.568  -0.450  -0.450  -0.388  -0.376  -0.376  -0.347  -0.347
  2 E     3 E     3 E     7 A1    4 E     4 E     5 E     5 E                  
 -0.332
  1 A2                                                                         
 -- Virtual --                   
 -0.045   0.009   0.009   0.087   0.128   0.190   0.191   0.252
  8 A1    6 E     6 E     9 A1   10 A1    7 E     7 E    11 A1                 
  0.269   0.269   0.317   0.317   0.335   0.336   0.339   0.354
  8 E     8 E     9 E     9 E    10 E    10 E    12 A1    0 xxx                
  0.355   0.355   0.357   0.382   0.414   0.415   0.435   0.452
  0 xxx   0 xxx  13 A1   14 A1   11 E    11 E     2 A2   15 A1                 
  0.470   0.470   0.571   0.571   0.612   0.629   0.629   0.665
 12 E    12 E    13 E    13 E     3 A2   14 E    14 E    16 A1                 
  0.766   0.769   0.770   0.923   0.958   0.958   0.985   0.985
 17 A1   15 E    15 E    18 A1   16 E    16 E    17 E    17 E                  
  1.022   1.061   1.061   1.065   1.418   1.636   1.636   1.661
 19 A1   18 E    18 E    20 A1   21 A1   19 E    19 E    22 A1                 
  1.680   1.681   1.717   1.741   1.742   1.748   1.755   1.755
 20 E    20 E    23 A1   21 E    21 E     4 A2   22 E    22 E                  
  1.771   1.776   1.777   1.835   1.884   1.884   1.888   1.921
 24 A1   23 E    23 E     5 A2   24 E    24 E    25 A1   25 E                  
  1.921   1.962   2.029   2.029   2.061   2.064   2.064   2.067
 25 E     6 A2   26 E    26 E    26 A1   27 E    27 E     0 xxx                
  2.067   2.068   2.141   2.141   2.164   2.164   2.188   2.189
  0 xxx   0 xxx  28 E    28 E    29 E    29 E     0 xxx   0 xxx                
  2.189   2.190   2.211   2.211   2.228   2.229   2.244   2.266
  0 xxx   7 A2   30 E    30 E    31 E    31 E     8 A2   27 A1                 
  2.305   2.454   2.546   2.546   2.594   2.796   2.796   3.009
 28 A1   29 A1   32 E    32 E    30 A1   33 E    33 E    34 E                  
  3.009   3.015   3.145   3.145   3.314   3.446   3.458   3.458
 34 E    31 A1   35 E    35 E    32 A1    9 A2   36 E    36 E                  
  3.499   3.499   3.560   3.831   3.831   3.918   3.918   3.919
 37 E    37 E    33 A1   38 E    38 E     0 xxx   0 xxx   0 xxx                
  4.076   5.129   6.847   6.848   6.961   6.961   7.228   7.228
 34 A1   35 A1   10 A2   36 A1   39 E    39 E    40 E    40 E                  
  7.294   8.396   8.396   8.852   8.852   8.993  10.788  10.794
 37 A1   41 E    41 E    42 E    42 E    38 A1   11 A2   43 E                  
 10.794  10.806  10.866  10.866  11.304  11.304  11.360  21.863
 43 E    39 A1   44 E    44 E    45 E    45 E    40 A1   41 A1                 
 25.176  25.176  25.253  57.055
 46 E    46 E    42 A1   43 A1                                                 
 --------------------------------------------------------------
 
          Ground-State Mulliken Net Atomic Charges

     Atom                 Charge (a.u.)
  ----------------------------------------
      1 C                     0.326103
      2 Cl                   -0.054600
      3 Cl                   -0.056449
      4 Cl                   -0.056449
      5 F                    -0.158606
  ----------------------------------------
  Sum of atomic charges =     0.000000

 -----------------------------------------------------------------
                    Cartesian Multipole Moments
 -----------------------------------------------------------------
    Charge (ESU x 10^10)
                 0.0000
    Dipole Moment (Debye)
         X      -0.0026      Y       0.0000      Z       0.3513
       Tot       0.3513
    Quadrupole Moments (Debye-Ang)
        XX     -46.2725     XY      -0.0000     YY     -46.2832
        XZ       0.0132     YZ       0.0000     ZZ     -48.3659
    Octopole Moments (Debye-Ang^2)
       XXX       4.4992    XXY       0.0000    XYY      -4.5157
       YYY       0.0000    XXZ       0.1231    XYZ      -0.0000
       YYZ       0.1199    XZZ      -0.0025    YZZ       0.0000
       ZZZ      -5.3572
    Hexadecapole Moments (Debye-Ang^3)
      XXXX    -338.6777   XXXY      -0.0000   XXYY    -112.8865
      XYYY      -0.0000   YYYY    -338.7509   XXXZ       4.5111
      XXYZ       0.0000   XYYZ      -4.4341   YYYZ       0.0000
      XXZZ     -82.1670   XYZZ      -0.0000   YYZZ     -82.1621
      XZZZ       0.0257   YZZZ       0.0000   ZZZZ    -143.5334
 -----------------------------------------------------------------
 Calculating analytic gradient of the SCF energy
 Gradient of SCF Energy
            1           2           3           4           5
    1   0.0001907  -0.0019839   0.0007418   0.0007418   0.0003095
    2  -0.0000000   0.0000000   0.0015724  -0.0015724   0.0000000
    3   0.0047595  -0.0005827  -0.0009867  -0.0009867  -0.0022034
 Max gradient component =       4.759E-03
 RMS gradient           =       1.631E-03
 Gradient time:  CPU 15.89 s  wall 4.16 s
 Geometry Optimization Parameters
   NAtoms,    NIC,     NZ,  NCons,   NDum,   NFix, NCnnct, MaxDiis
        5      20       0       0       0       0       0       0

 Cartesian Hessian Update
 Hessian updated using BFGS update


** GEOMETRY OPTIMIZATION IN DELOCALIZED INTERNAL COORDINATES **
   Searching for a Minimum

   Optimization Cycle:   3

                       Coordinates (Angstroms)
     ATOM                X               Y               Z
      1  C         0.0000000000    0.0000000000   -0.2621434037
      2  Cl        1.6717900865    0.0000000000    0.2991131045
      3  Cl       -0.8358950432   -1.4478126847    0.2991131045
      4  Cl       -0.8358950432    1.4478126847    0.2991131045
      5  F         0.0000000000    0.0000000000   -1.5866141517
   Point Group: c3v   Number of degrees of freedom:     3


   Energy is  -1518.479703597

 Hessian updated using BFGS update

  3 Hessian modes will be used to form the next step
  Hessian Eigenvalues:
     0.205990    0.334731    0.429408

 Minimum search - taking simple RFO step
 Searching for Lamda that Minimizes Along All modes
 Value Taken    Lamda =  -0.00007932
 Step Taken.  Stepsize is  0.019174

                             Maximum     Tolerance    Cnvgd?
         Gradient           0.003730      0.000300      NO
         Displacement       0.017261      0.001200      NO
         Energy change     -0.000259      0.000001      NO


 New Cartesian Coordinates Obtained by Inverse Iteration

 Displacement from previous Coordinates is:  0.013810
 ----------------------------------------------------------------
             Standard Nuclear Orientation (Angstroms)
    I     Atom           X                Y                Z
 ----------------------------------------------------------------
    1      C       0.0000000000     0.0000000000    -0.2671928909
    2      Cl      1.6743082135     0.0000000000     0.3008331261
    3      Cl     -0.8371541067    -1.4499934466     0.3008331261
    4      Cl     -0.8371541067     1.4499934466     0.3008331261
    5      F       0.0000000000     0.0000000000    -1.5867247295
 ----------------------------------------------------------------
 Molecular Point Group                 C3v   NOp =  6
 Largest Abelian Subgroup              Cs    NOp =  2
 Nuclear Repulsion Energy =         367.71493916 hartrees
 There are       33 alpha and       33 beta electrons

 Q-Chem warning in module 0, line  323:

 turning symmetry off for DFT job

 Applying Cartesian multipole field
    Component          Value
    ---------          -----
     (2,0,0)        1.00000E-11
     (0,2,0)        2.00000E-11
     (0,0,2)       -3.00000E-11
 Nucleus-field energy     =     0.0000000047 hartrees
 Requested basis set is def2-TZVP
 There are 61 shells and 173 basis functions
 A cutoff of  1.0D-11 yielded   1715 shell pairs
 There are     14651 function pairs (     19396 Cartesian)
 Smallest overlap matrix eigenvalue = 2.19E-03
 Guess MOs from SCF MO coefficient file

 -----------------------------------------------------------------------
  General SCF calculation program by
  Eric Jon Sundstrom, Paul Horn, Yuezhi Mao, Dmitri Zuev, Alec White,
  David Stuck, Shaama M.S., Shane Yost, Joonho Lee, David Small,
  Daniel Levine, Susi Lehtola, Hugh Burton, Evgeny Epifanovsky
 -----------------------------------------------------------------------
 Exchange:     0.2700 Hartree-Fock + 1.0000 M06
 Correlation:  1.0000 M06
 Using SG-3 standard quadrature grid
 using 4 threads for integral computing
 -------------------------------------------------------
 OpenMP Integral computing Module                
 Release: version 2.0, May 2017, Q-Chem Inc. Pleasanton 
 -------------------------------------------------------
 A restricted SCF calculation will be
 performed using DIIS
 SCF converges when DIIS error is below 1.0e-08
 ---------------------------------------
  Cycle       Energy         DIIS error
 ---------------------------------------
    1   -1518.4797036312      1.03e-04  
    2   -1518.4797364390      6.07e-05  
    3   -1518.4797384081      5.25e-05  
    4   -1518.4797461938      7.43e-06  
    5   -1518.4797463268      3.60e-06  
    6   -1518.4797463628      4.99e-07  
    7   -1518.4797463627      1.60e-07  
    8   -1518.4797463630      2.91e-08  
    9   -1518.4797463630      7.17e-09  Convergence criterion met
 ---------------------------------------
 SCF time:   CPU 49.80s  wall 13.00s 
 SCF   energy in the final basis set =    -1518.4797463630
 Total energy in the final basis set =    -1518.4797463630
 
 --------------------------------------------------------------
             Orbital Energies (a.u.) and Symmetries
 --------------------------------------------------------------
 Warning : Irrep of orbital(   1) could not be determined
 Warning : Irrep of orbital(   2) could not be determined
 Warning : Irrep of orbital(   3) could not be determined
 Warning : Irrep of orbital(   6) could not be determined
 Warning : Irrep of orbital(   7) could not be determined
 Warning : Irrep of orbital(   8) could not be determined
 Warning : Irrep of orbital(   9) could not be determined
 Warning : Irrep of orbital(  10) could not be determined
 Warning : Irrep of orbital(  11) could not be determined
 Warning : Irrep of orbital(  12) could not be determined
 Warning : Irrep of orbital(  13) could not be determined
 Warning : Irrep of orbital(  14) could not be determined
 Warning : Irrep of orbital(  15) could not be determined
 Warning : Irrep of orbital(  16) could not be determined
 Warning : Irrep of orbital(  17) could not be determined
 Warning : Irrep of orbital(  49) could not be determined
 Warning : Irrep of orbital(  50) could not be determined
 Warning : Irrep of orbital(  51) could not be determined
 Warning : Irrep of orbital( 105) could not be determined
 Warning : Irrep of orbital( 106) could not be determined
 Warning : Irrep of orbital( 107) could not be determined
 Warning : Irrep of orbital( 143) could not be determined
 Warning : Irrep of orbital( 144) could not be determined
 Warning : Irrep of orbital( 145) could not be determined
 
 Alpha MOs, Restricted
 -- Occupied --                  
-101.74 -101.74 -101.74  -24.84  -10.51   -9.62   -9.62   -9.62
  0 xxx   0 xxx   0 xxx   1 A1    2 A1    0 xxx   0 xxx   0 xxx                
 -7.331  -7.330  -7.330  -7.320  -7.320  -7.320  -7.320  -7.320
  0 xxx   0 xxx   0 xxx   0 xxx   0 xxx   0 xxx   0 xxx   0 xxx                
 -7.320  -1.336  -0.964  -0.881  -0.881  -0.694  -0.580  -0.570
  0 xxx   3 A1    4 A1    1 E     1 E     5 A1    6 A1    2 E                  
 -0.570  -0.450  -0.450  -0.388  -0.376  -0.376  -0.346  -0.346
  2 E     3 E     3 E     7 A1    4 E     4 E     5 E     5 E                  
 -0.332
  1 A2                                                                         
 -- Virtual --                   
 -0.046   0.008   0.008   0.088   0.128   0.190   0.191   0.252
  8 A1    6 E     6 E     9 A1   10 A1    7 E     7 E    11 A1                 
  0.270   0.270   0.318   0.318   0.335   0.336   0.339   0.354
  8 E     8 E     9 E     9 E    10 E    10 E    12 A1    0 xxx                
  0.355   0.355   0.358   0.383   0.414   0.414   0.435   0.450
  0 xxx   0 xxx  13 A1   14 A1   11 E    11 E     2 A2   15 A1                 
  0.470   0.470   0.569   0.569   0.611   0.628   0.628   0.662
 12 E    12 E    13 E    13 E     3 A2   14 E    14 E    16 A1                 
  0.767   0.769   0.770   0.922   0.956   0.956   0.986   0.986
 17 A1   15 E    15 E    18 A1   16 E    16 E    17 E    17 E                  
  1.024   1.058   1.058   1.065   1.419   1.636   1.636   1.658
 19 A1   18 E    18 E    20 A1   21 A1   19 E    19 E    22 A1                 
  1.681   1.681   1.717   1.741   1.741   1.749   1.756   1.756
 20 E    20 E    23 A1   21 E    21 E     4 A2   22 E    22 E                  
  1.771   1.777   1.777   1.836   1.884   1.884   1.888   1.921
 24 A1   23 E    23 E     5 A2   24 E    24 E    25 A1   25 E                  
  1.921   1.960   2.029   2.029   2.061   2.064   2.064   2.067
 25 E     6 A2   26 E    26 E    26 A1   27 E    27 E     0 xxx                
  2.067   2.068   2.138   2.138   2.161   2.161   2.187   2.187
  0 xxx   0 xxx  28 E    28 E    29 E    29 E    30 E    30 E                  
  2.187   2.189   2.209   2.209   2.228   2.228   2.244   2.265
  7 A2   27 A1   31 E    31 E    32 E    32 E     8 A2   28 A1                 
  2.305   2.449   2.541   2.541   2.591   2.790   2.791   3.008
 29 A1   30 A1   33 E    33 E    31 A1   34 E    34 E    35 E                  
  3.008   3.010   3.143   3.143   3.312   3.437   3.456   3.456
 35 E    32 A1   36 E    36 E    33 A1    9 A2   37 E    37 E                  
  3.495   3.495   3.561   3.831   3.832   3.917   3.918   3.918
 38 E    38 E    34 A1   39 E    39 E     0 xxx   0 xxx   0 xxx                
  4.083   5.125   6.845   6.846   6.961   6.961   7.232   7.232
 35 A1   36 A1   10 A2   37 A1   40 E    40 E    41 E    41 E                  
  7.299   8.395   8.395   8.854   8.854   8.991  10.788  10.794
 38 A1   42 E    42 E    43 E    43 E    39 A1   11 A2   44 E                  
 10.794  10.806  10.864  10.864  11.301  11.301  11.359  21.875
 44 E    40 A1   45 E    45 E    46 E    46 E    41 A1   42 A1                 
 25.158  25.158  25.246  57.054
 47 E    47 E    43 A1   44 A1                                                 
 
 Beta MOs, Restricted
 -- Occupied --                  
-101.74 -101.74 -101.74  -24.84  -10.51   -9.62   -9.62   -9.62
  0 xxx   0 xxx   0 xxx   1 A1    2 A1    0 xxx   0 xxx   0 xxx                
 -7.331  -7.330  -7.330  -7.320  -7.320  -7.320  -7.320  -7.320
  0 xxx   0 xxx   0 xxx   0 xxx   0 xxx   0 xxx   0 xxx   0 xxx                
 -7.320  -1.336  -0.964  -0.881  -0.881  -0.694  -0.580  -0.570
  0 xxx   3 A1    4 A1    1 E     1 E     5 A1    6 A1    2 E                  
 -0.570  -0.450  -0.450  -0.388  -0.376  -0.376  -0.346  -0.346
  2 E     3 E     3 E     7 A1    4 E     4 E     5 E     5 E                  
 -0.332
  1 A2                                                                         
 -- Virtual --                   
 -0.046   0.008   0.008   0.088   0.128   0.190   0.191   0.252
  8 A1    6 E     6 E     9 A1   10 A1    7 E     7 E    11 A1                 
  0.270   0.270   0.318   0.318   0.335   0.336   0.339   0.354
  8 E     8 E     9 E     9 E    10 E    10 E    12 A1    0 xxx                
  0.355   0.355   0.358   0.383   0.414   0.414   0.435   0.450
  0 xxx   0 xxx  13 A1   14 A1   11 E    11 E     2 A2   15 A1                 
  0.470   0.470   0.569   0.569   0.611   0.628   0.628   0.662
 12 E    12 E    13 E    13 E     3 A2   14 E    14 E    16 A1                 
  0.767   0.769   0.770   0.922   0.956   0.956   0.986   0.986
 17 A1   15 E    15 E    18 A1   16 E    16 E    17 E    17 E                  
  1.024   1.058   1.058   1.065   1.419   1.636   1.636   1.658
 19 A1   18 E    18 E    20 A1   21 A1   19 E    19 E    22 A1                 
  1.681   1.681   1.717   1.741   1.741   1.749   1.756   1.756
 20 E    20 E    23 A1   21 E    21 E     4 A2   22 E    22 E                  
  1.771   1.777   1.777   1.836   1.884   1.884   1.888   1.921
 24 A1   23 E    23 E     5 A2   24 E    24 E    25 A1   25 E                  
  1.921   1.960   2.029   2.029   2.061   2.064   2.064   2.067
 25 E     6 A2   26 E    26 E    26 A1   27 E    27 E     0 xxx                
  2.067   2.068   2.138   2.138   2.161   2.161   2.187   2.187
  0 xxx   0 xxx  28 E    28 E    29 E    29 E    30 E    30 E                  
  2.187   2.189   2.209   2.209   2.228   2.228   2.244   2.265
  7 A2   27 A1   31 E    31 E    32 E    32 E     8 A2   28 A1                 
  2.305   2.449   2.541   2.541   2.591   2.790   2.791   3.008
 29 A1   30 A1   33 E    33 E    31 A1   34 E    34 E    35 E                  
  3.008   3.010   3.143   3.143   3.312   3.437   3.456   3.456
 35 E    32 A1   36 E    36 E    33 A1    9 A2   37 E    37 E                  
  3.495   3.495   3.561   3.831   3.832   3.917   3.918   3.918
 38 E    38 E    34 A1   39 E    39 E     0 xxx   0 xxx   0 xxx                
  4.083   5.125   6.845   6.846   6.961   6.961   7.232   7.232
 35 A1   36 A1   10 A2   37 A1   40 E    40 E    41 E    41 E                  
  7.299   8.395   8.395   8.854   8.854   8.991  10.788  10.794
 38 A1   42 E    42 E    43 E    43 E    39 A1   11 A2   44 E                  
 10.794  10.806  10.864  10.864  11.301  11.301  11.359  21.875
 44 E    40 A1   45 E    45 E    46 E    46 E    41 A1   42 A1                 
 25.158  25.158  25.246  57.054
 47 E    47 E    43 A1   44 A1                                                 
 --------------------------------------------------------------
 
          Ground-State Mulliken Net Atomic Charges

     Atom                 Charge (a.u.)
  ----------------------------------------
      1 C                     0.328084
      2 Cl                   -0.056372
      3 Cl                   -0.058208
      4 Cl                   -0.058208
      5 F                    -0.155297
  ----------------------------------------
  Sum of atomic charges =     0.000000

 -----------------------------------------------------------------
                    Cartesian Multipole Moments
 -----------------------------------------------------------------
    Charge (ESU x 10^10)
                 0.0000
    Dipole Moment (Debye)
         X      -0.0026      Y       0.0000      Z       0.3109
       Tot       0.3109
    Quadrupole Moments (Debye-Ang)
        XX     -46.3230     XY       0.0000     YY     -46.3339
        XZ       0.0132     YZ      -0.0000     ZZ     -48.3091
    Octopole Moments (Debye-Ang^2)
       XXX       4.4710    XXY       0.0000    XYY      -4.4877
       YYY       0.0000    XXZ       0.1017    XYZ       0.0000
       YYZ       0.0985    XZZ      -0.0026    YZZ       0.0000
       ZZZ      -5.5988
    Hexadecapole Moments (Debye-Ang^3)
      XXXX    -339.8909   XXXY      -0.0000   XXYY    -113.2912
      XYYY      -0.0000   YYYY    -339.9648   XXXZ       4.5672
      XXYZ       0.0000   XYYZ      -4.4902   YYYZ      -0.0000
      XXZZ     -82.3426   XYZZ      -0.0000   YYZZ     -82.3378
      XZZZ       0.0257   YZZZ      -0.0000   ZZZZ    -143.6091
 -----------------------------------------------------------------
 Calculating analytic gradient of the SCF energy
 Gradient of SCF Energy
            1           2           3           4           5
    1   0.0001859  -0.0004000  -0.0000484  -0.0000484   0.0003109
    2   0.0000000   0.0000000   0.0002008  -0.0002008   0.0000000
    3   0.0002747   0.0002280  -0.0001698  -0.0001698  -0.0001631
 Max gradient component =       4.000E-04
 RMS gradient           =       1.980E-04
 Gradient time:  CPU 16.01 s  wall 4.19 s
 Geometry Optimization Parameters
   NAtoms,    NIC,     NZ,  NCons,   NDum,   NFix, NCnnct, MaxDiis
        5      20       0       0       0       0       0       0

 Cartesian Hessian Update
 Hessian updated using BFGS update


** GEOMETRY OPTIMIZATION IN DELOCALIZED INTERNAL COORDINATES **
   Searching for a Minimum

   Optimization Cycle:   4

                       Coordinates (Angstroms)
     ATOM                X               Y               Z
      1  C         0.0000000000    0.0000000000   -0.2671928909
      2  Cl        1.6743082135    0.0000000000    0.3008331261
      3  Cl       -0.8371541067   -1.4499934466    0.3008331261
      4  Cl       -0.8371541067    1.4499934466    0.3008331261
      5  F         0.0000000000    0.0000000000   -1.5867247295
   Point Group: c3v   Number of degrees of freedom:     3


   Energy is  -1518.479746363

 Hessian updated using BFGS update

  3 Hessian modes will be used to form the next step
  Hessian Eigenvalues:
     0.195699    0.328094    0.424851

 Minimum search - taking simple RFO step
 Searching for Lamda that Minimizes Along All modes
 Value Taken    Lamda =   0.00000000
 Step Taken.  Stepsize is  0.001787

                             Maximum     Tolerance    Cnvgd?
         Gradient           0.000280      0.000300     YES
         Displacement       0.001254      0.001200      NO
         Energy change     -0.000043      0.000001      NO


 New Cartesian Coordinates Obtained by Inverse Iteration

 Displacement from previous Coordinates is:  0.001732
 ----------------------------------------------------------------
             Standard Nuclear Orientation (Angstroms)
    I     Atom           X                Y                Z
 ----------------------------------------------------------------
    1      C       0.0000000000     0.0000000000    -0.2673124667
    2      Cl      1.6748152480     0.0000000000     0.3007978760
    3      Cl     -0.8374076240    -1.4504325514     0.3007978760
    4      Cl     -0.8374076240     1.4504325514     0.3007978760
    5      F       0.0000000000     0.0000000000    -1.5864994033
 ----------------------------------------------------------------
 Molecular Point Group                 C3v   NOp =  6
 Largest Abelian Subgroup              Cs    NOp =  2
 Nuclear Repulsion Energy =         367.64103552 hartrees
 There are       33 alpha and       33 beta electrons

 Q-Chem warning in module 0, line  323:

 turning symmetry off for DFT job

 Applying Cartesian multipole field
    Component          Value
    ---------          -----
     (2,0,0)        1.00000E-11
     (0,2,0)        2.00000E-11
     (0,0,2)       -3.00000E-11
 Nucleus-field energy     =     0.0000000047 hartrees
 Requested basis set is def2-TZVP
 There are 61 shells and 173 basis functions
 A cutoff of  1.0D-11 yielded   1715 shell pairs
 There are     14651 function pairs (     19396 Cartesian)
 Smallest overlap matrix eigenvalue = 2.20E-03
 Guess MOs from SCF MO coefficient file

 -----------------------------------------------------------------------
  General SCF calculation program by
  Eric Jon Sundstrom, Paul Horn, Yuezhi Mao, Dmitri Zuev, Alec White,
  David Stuck, Shaama M.S., Shane Yost, Joonho Lee, David Small,
  Daniel Levine, Susi Lehtola, Hugh Burton, Evgeny Epifanovsky
 -----------------------------------------------------------------------
 Exchange:     0.2700 Hartree-Fock + 1.0000 M06
 Correlation:  1.0000 M06
 Using SG-3 standard quadrature grid
 using 4 threads for integral computing
 -------------------------------------------------------
 OpenMP Integral computing Module                
 Release: version 2.0, May 2017, Q-Chem Inc. Pleasanton 
 -------------------------------------------------------
 A restricted SCF calculation will be
 performed using DIIS
 SCF converges when DIIS error is below 1.0e-08
 ---------------------------------------
  Cycle       Energy         DIIS error
 ---------------------------------------
    1   -1518.4797464909      8.34e-06  
    2   -1518.4797466741      5.47e-06  
    3   -1518.4797466985      4.69e-06  
    4   -1518.4797467681      4.00e-07  
    5   -1518.4797467677      2.40e-07  
    6   -1518.4797467684      2.92e-08  
    7   -1518.4797467689      7.06e-09  Convergence criterion met
 ---------------------------------------
 SCF time:   CPU 38.31s  wall 10.00s 
 SCF   energy in the final basis set =    -1518.4797467689
 Total energy in the final basis set =    -1518.4797467689
 
 --------------------------------------------------------------
             Orbital Energies (a.u.) and Symmetries
 --------------------------------------------------------------
 Warning : Irrep of orbital(   1) could not be determined
 Warning : Irrep of orbital(   2) could not be determined
 Warning : Irrep of orbital(   3) could not be determined
 Warning : Irrep of orbital(   6) could not be determined
 Warning : Irrep of orbital(   7) could not be determined
 Warning : Irrep of orbital(   8) could not be determined
 Warning : Irrep of orbital(   9) could not be determined
 Warning : Irrep of orbital(  10) could not be determined
 Warning : Irrep of orbital(  11) could not be determined
 Warning : Irrep of orbital(  12) could not be determined
 Warning : Irrep of orbital(  13) could not be determined
 Warning : Irrep of orbital(  14) could not be determined
 Warning : Irrep of orbital(  15) could not be determined
 Warning : Irrep of orbital(  16) could not be determined
 Warning : Irrep of orbital(  17) could not be determined
 Warning : Irrep of orbital(  49) could not be determined
 Warning : Irrep of orbital(  50) could not be determined
 Warning : Irrep of orbital(  51) could not be determined
 Warning : Irrep of orbital( 105) could not be determined
 Warning : Irrep of orbital( 106) could not be determined
 Warning : Irrep of orbital( 107) could not be determined
 Warning : Irrep of orbital( 143) could not be determined
 Warning : Irrep of orbital( 144) could not be determined
 Warning : Irrep of orbital( 145) could not be determined
 
 Alpha MOs, Restricted
 -- Occupied --                  
-101.74 -101.74 -101.74  -24.84  -10.51   -9.62   -9.62   -9.62
  0 xxx   0 xxx   0 xxx   1 A1    2 A1    0 xxx   0 xxx   0 xxx                
 -7.331  -7.330  -7.330  -7.320  -7.320  -7.320  -7.320  -7.320
  0 xxx   0 xxx   0 xxx   0 xxx   0 xxx   0 xxx   0 xxx   0 xxx                
 -7.320  -1.336  -0.964  -0.881  -0.881  -0.694  -0.580  -0.570
  0 xxx   3 A1    4 A1    1 E     1 E     5 A1    6 A1    2 E                  
 -0.570  -0.450  -0.450  -0.388  -0.376  -0.376  -0.346  -0.346
  2 E     3 E     3 E     7 A1    4 E     4 E     5 E     5 E                  
 -0.332
  1 A2                                                                         
 -- Virtual --                   
 -0.046   0.008   0.008   0.088   0.128   0.190   0.191   0.252
  8 A1    6 E     6 E     9 A1   10 A1    7 E     7 E    11 A1                 
  0.270   0.270   0.318   0.318   0.335   0.336   0.339   0.354
  8 E     8 E     9 E     9 E    10 E    10 E    12 A1    0 xxx                
  0.355   0.355   0.358   0.383   0.414   0.414   0.435   0.450
  0 xxx   0 xxx  13 A1   14 A1   11 E    11 E     2 A2   15 A1                 
  0.470   0.470   0.569   0.569   0.611   0.628   0.628   0.662
 12 E    12 E    13 E    13 E     3 A2   14 E    14 E    16 A1                 
  0.767   0.769   0.770   0.922   0.956   0.956   0.986   0.986
 17 A1   15 E    15 E    18 A1   16 E    16 E    17 E    17 E                  
  1.024   1.058   1.058   1.065   1.419   1.636   1.636   1.658
 19 A1   18 E    18 E    20 A1   21 A1   19 E    19 E    22 A1                 
  1.681   1.681   1.717   1.741   1.741   1.749   1.756   1.756
 20 E    20 E    23 A1   21 E    21 E     4 A2   22 E    22 E                  
  1.771   1.777   1.777   1.836   1.884   1.884   1.888   1.921
 24 A1   23 E    23 E     5 A2   24 E    24 E    25 A1   25 E                  
  1.921   1.960   2.029   2.029   2.061   2.064   2.064   2.067
 25 E     6 A2   26 E    26 E    26 A1   27 E    27 E     0 xxx                
  2.067   2.068   2.138   2.138   2.160   2.161   2.186   2.187
  0 xxx   0 xxx  28 E    28 E    29 E    29 E    30 E    30 E                  
  2.187   2.189   2.209   2.209   2.227   2.228   2.244   2.264
  7 A2   27 A1   31 E    31 E    32 E    32 E     8 A2   28 A1                 
  2.304   2.449   2.541   2.541   2.590   2.790   2.790   3.008
 29 A1   30 A1   33 E    33 E    31 A1   34 E    34 E    35 E                  
  3.008   3.010   3.143   3.143   3.312   3.436   3.455   3.455
 35 E    32 A1   36 E    36 E    33 A1    9 A2   37 E    37 E                  
  3.495   3.495   3.561   3.831   3.832   3.917   3.918   3.918
 38 E    38 E    34 A1   39 E    39 E     0 xxx   0 xxx   0 xxx                
  4.084   5.124   6.844   6.845   6.961   6.961   7.233   7.233
 35 A1   36 A1   10 A2   37 A1   40 E    40 E    41 E    41 E                  
  7.299   8.394   8.395   8.854   8.854   8.990  10.788  10.794
 38 A1   42 E    42 E    43 E    43 E    39 A1   11 A2   44 E                  
 10.794  10.806  10.864  10.864  11.300  11.300  11.358  21.876
 44 E    40 A1   45 E    45 E    46 E    46 E    41 A1   42 A1                 
 25.157  25.157  25.244  57.054
 47 E    47 E    43 A1   44 A1                                                 
 
 Beta MOs, Restricted
 -- Occupied --                  
-101.74 -101.74 -101.74  -24.84  -10.51   -9.62   -9.62   -9.62
  0 xxx   0 xxx   0 xxx   1 A1    2 A1    0 xxx   0 xxx   0 xxx                
 -7.331  -7.330  -7.330  -7.320  -7.320  -7.320  -7.320  -7.320
  0 xxx   0 xxx   0 xxx   0 xxx   0 xxx   0 xxx   0 xxx   0 xxx                
 -7.320  -1.336  -0.964  -0.881  -0.881  -0.694  -0.580  -0.570
  0 xxx   3 A1    4 A1    1 E     1 E     5 A1    6 A1    2 E                  
 -0.570  -0.450  -0.450  -0.388  -0.376  -0.376  -0.346  -0.346
  2 E     3 E     3 E     7 A1    4 E     4 E     5 E     5 E                  
 -0.332
  1 A2                                                                         
 -- Virtual --                   
 -0.046   0.008   0.008   0.088   0.128   0.190   0.191   0.252
  8 A1    6 E     6 E     9 A1   10 A1    7 E     7 E    11 A1                 
  0.270   0.270   0.318   0.318   0.335   0.336   0.339   0.354
  8 E     8 E     9 E     9 E    10 E    10 E    12 A1    0 xxx                
  0.355   0.355   0.358   0.383   0.414   0.414   0.435   0.450
  0 xxx   0 xxx  13 A1   14 A1   11 E    11 E     2 A2   15 A1                 
  0.470   0.470   0.569   0.569   0.611   0.628   0.628   0.662
 12 E    12 E    13 E    13 E     3 A2   14 E    14 E    16 A1                 
  0.767   0.769   0.770   0.922   0.956   0.956   0.986   0.986
 17 A1   15 E    15 E    18 A1   16 E    16 E    17 E    17 E                  
  1.024   1.058   1.058   1.065   1.419   1.636   1.636   1.658
 19 A1   18 E    18 E    20 A1   21 A1   19 E    19 E    22 A1                 
  1.681   1.681   1.717   1.741   1.741   1.749   1.756   1.756
 20 E    20 E    23 A1   21 E    21 E     4 A2   22 E    22 E                  
  1.771   1.777   1.777   1.836   1.884   1.884   1.888   1.921
 24 A1   23 E    23 E     5 A2   24 E    24 E    25 A1   25 E                  
  1.921   1.960   2.029   2.029   2.061   2.064   2.064   2.067
 25 E     6 A2   26 E    26 E    26 A1   27 E    27 E     0 xxx                
  2.067   2.068   2.138   2.138   2.160   2.161   2.186   2.187
  0 xxx   0 xxx  28 E    28 E    29 E    29 E    30 E    30 E                  
  2.187   2.189   2.209   2.209   2.227   2.228   2.244   2.264
  7 A2   27 A1   31 E    31 E    32 E    32 E     8 A2   28 A1                 
  2.304   2.449   2.541   2.541   2.590   2.790   2.790   3.008
 29 A1   30 A1   33 E    33 E    31 A1   34 E    34 E    35 E                  
  3.008   3.010   3.143   3.143   3.312   3.436   3.455   3.455
 35 E    32 A1   36 E    36 E    33 A1    9 A2   37 E    37 E                  
  3.495   3.495   3.561   3.831   3.832   3.917   3.918   3.918
 38 E    38 E    34 A1   39 E    39 E     0 xxx   0 xxx   0 xxx                
  4.084   5.124   6.844   6.845   6.961   6.961   7.233   7.233
 35 A1   36 A1   10 A2   37 A1   40 E    40 E    41 E    41 E                  
  7.299   8.394   8.395   8.854   8.854   8.990  10.788  10.794
 38 A1   42 E    42 E    43 E    43 E    39 A1   11 A2   44 E                  
 10.794  10.806  10.864  10.864  11.300  11.300  11.358  21.876
 44 E    40 A1   45 E    45 E    46 E    46 E    41 A1   42 A1                 
 25.157  25.157  25.244  57.054
 47 E    47 E    43 A1   44 A1                                                 
 --------------------------------------------------------------
 
          Ground-State Mulliken Net Atomic Charges

     Atom                 Charge (a.u.)
  ----------------------------------------
      1 C                     0.328265
      2 Cl                   -0.056522
      3 Cl                   -0.058353
      4 Cl                   -0.058353
      5 F                    -0.155037
  ----------------------------------------
  Sum of atomic charges =     0.000000

 -----------------------------------------------------------------
                    Cartesian Multipole Moments
 -----------------------------------------------------------------
    Charge (ESU x 10^10)
                -0.0000
    Dipole Moment (Debye)
         X      -0.0026      Y      -0.0000      Z       0.3079
       Tot       0.3079
    Quadrupole Moments (Debye-Ang)
        XX     -46.3259     XY      -0.0000     YY     -46.3367
        XZ       0.0132     YZ      -0.0000     ZZ     -48.3069
    Octopole Moments (Debye-Ang^2)
       XXX       4.4723    XXY      -0.0000    XYY      -4.4891
       YYY      -0.0000    XXZ       0.1012    XYZ       0.0000
       YYZ       0.0979    XZZ      -0.0027    YZZ      -0.0000
       ZZZ      -5.6082
    Hexadecapole Moments (Debye-Ang^3)
      XXXX    -340.0795   XXXY      -0.0000   XXYY    -113.3541
      XYYY       0.0000   YYYY    -340.1532   XXXZ       4.5687
      XXYZ      -0.0000   XYYZ      -4.4917   YYYZ      -0.0000
      XXZZ     -82.3729   XYZZ       0.0000   YYZZ     -82.3681
      XZZZ       0.0257   YZZZ      -0.0000   ZZZZ    -143.5721
 -----------------------------------------------------------------
 Calculating analytic gradient of the SCF energy
 Gradient of SCF Energy
            1           2           3           4           5
    1   0.0001870  -0.0001721  -0.0001622  -0.0001622   0.0003095
    2  -0.0000000  -0.0000000   0.0000027  -0.0000027  -0.0000000
    3  -0.0000026   0.0002667  -0.0001308  -0.0001308  -0.0000024
 Max gradient component =       3.095E-04
 RMS gradient           =       1.457E-04
 Gradient time:  CPU 16.22 s  wall 4.25 s
 Geometry Optimization Parameters
   NAtoms,    NIC,     NZ,  NCons,   NDum,   NFix, NCnnct, MaxDiis
        5      20       0       0       0       0       0       0

 Cartesian Hessian Update
 Hessian updated using BFGS update


** GEOMETRY OPTIMIZATION IN DELOCALIZED INTERNAL COORDINATES **
   Searching for a Minimum

   Optimization Cycle:   5

                       Coordinates (Angstroms)
     ATOM                X               Y               Z
      1  C         0.0000000000    0.0000000000   -0.2673124667
      2  Cl        1.6748152480    0.0000000000    0.3007978760
[...]
 VCI[4] |  1  0  0  0  0  1  0  2  0 >    2483.33 
 VCI[4] |  0  1  0  0  0  1  1  1  0 >    2483.59 
 VCI[4] |  1  1  0  0  0  0  1  0  1 >    2484.23 
 VCI[4] |  1  1  0  0  0  0  0  1  1 >    2484.53 
 VCI[4] |  0  0  0  0  0  1  1  0  1 >    2485.96 
 VCI[4] |  0  1  0  0  0  1  0  2  0 >    2486.62 
 VCI[4] |  0  0  0  0  0  1  0  1  1 >    2486.83 
 VCI[4] |  0  0  0  2  0  0  2  0  0 >    2487.32 
 VCI[4] |  0  2  0  0  0  0  1  0  1 >    2487.52 
 VCI[4] |  0  2  0  0  0  0  0  1  1 >    2487.83 
 VCI[4] |  0  0  1  1  0  1  0  0  1 >    2491.28 
 VCI[4] |  0  0  1  0  1  1  0  0  1 >    2492.48 
 VCI[4] |  1  0  0  0  0  0  0  0  2 >    2502.33 
 VCI[4] |  0  1  0  0  0  0  0  0  2 >    2505.62 
 VCI[4] |  1  0  0  0  0  2  0  0  1 >    2536.76 
 VCI[4] |  0  0  0  0  0  3  1  0  0 >    2539.42 
 VCI[4] |  0  1  0  0  0  2  0  0  1 >    2540.05 
 VCI[4] |  0  0  0  0  0  3  0  1  0 >    2543.13 
 VCI[4] |  0  0  0  2  0  1  0  0  1 >    2545.05 
 VCI[4] |  0  0  0  1  1  1  0  0  1 >    2545.52 
 VCI[4] |  0  0  0  0  2  1  0  0  1 >    2547.41 
 VCI[4] |  1  0  1  0  0  0  1  0  1 >    2587.69 
 VCI[4] |  1  0  1  0  0  0  0  1  1 >    2588.12 
 VCI[4] |  0  0  1  0  0  1  2  0  0 >    2589.95 
 VCI[4] |  0  1  1  0  0  0  1  0  1 >    2590.98 
 VCI[4] |  0  0  1  0  0  1  1  1  0 >    2591.17 
 VCI[4] |  0  1  1  0  0  0  0  1  1 >    2591.42 
 VCI[4] |  0  0  1  0  0  1  0  2  0 >    2594.19 
 VCI[4] |  0  0  1  0  0  0  0  0  2 >    2608.64 
 VCI[4] |  1  0  0  1  0  0  0  1  1 >    2638.54 
 VCI[4] |  1  0  0  0  1  0  1  0  1 >    2639.24 
 VCI[4] |  1  0  0  1  0  0  1  0  1 >    2640.58 
 VCI[4] |  1  0  0  0  1  0  0  1  1 >    2641.48 
 VCI[4] |  0  1  0  1  0  0  0  1  1 >    2641.83 
 VCI[4] |  0  1  0  0  1  0  1  0  1 >    2642.53 
 VCI[4] |  0  1  0  1  0  0  1  0  1 >    2643.88 
 VCI[4] |  0  1  0  0  1  0  0  1  1 >    2644.77 
 VCI[4] |  0  0  1  0  0  2  0  0  1 >    2646.41 
 VCI[4] |  0  0  0  0  1  1  2  0  0 >    2647.66 
 VCI[4] |  0  0  0  1  0  1  1  1  0 >    2649.28 
 VCI[4] |  0  0  0  1  0  1  0  2  0 >    2651.40 
 VCI[4] |  0  0  0  0  1  1  1  1  0 >    2651.60 
 VCI[4] |  0  0  0  1  0  1  2  0  0 >    2652.86 
 VCI[4] |  0  0  0  1  0  0  0  0  2 >    2654.69 
 VCI[4] |  0  0  0  0  1  1  0  2  0 >    2655.06 
 VCI[4] |  0  0  0  0  1  1  0  2  0 >    2656.49 
 VCI[4] |  0  0  2  0  0  0  1  0  1 >    2694.70 
 VCI[4] |  0  0  2  0  0  0  0  1  1 >    2695.28 
 VCI[4] |  0  0  0  1  0  2  0  0  1 >    2701.63 
 VCI[4] |  0  0  0  0  1  2  0  0  1 >    2702.95 
 VCI[4] |  1  0  0  0  0  0  2  1  0 >    2728.28 
 VCI[4] |  0  1  0  0  0  0  2  1  0 >    2731.58 
 VCI[4] |  1  0  0  0  0  0  0  3  0 >    2743.65 
 VCI[4] |  1  0  0  0  0  0  1  2  0 >    2744.18 
 VCI[4] |  0  0  1  1  0  0  0  1  1 >    2745.32 
 VCI[4] |  0  0  1  0  1  0  1  0  1 >    2745.87 
 VCI[4] |  0  1  0  0  0  0  0  3  0 >    2746.94 
 VCI[4] |  0  0  1  1  0  0  1  0  1 >    2747.16 
 VCI[4] |  0  1  0  0  0  0  1  2  0 >    2747.48 
 VCI[4] |  0  0  1  0  1  0  0  1  1 >    2748.21 
 VCI[4] |  1  0  0  0  0  0  3  0  0 >    2748.31 
 VCI[4] |  0  0  0  0  0  0  2  0  1 >    2749.28 
 VCI[4] |  0  1  0  0  0  0  3  0  0 >    2751.60 
 VCI[4] |  0  0  0  0  0  0  0  2  1 >    2756.08 
 VCI[4] |  0  0  0  0  0  0  1  1  1 >    2757.27 
 VCI[4] |  0  0  0  2  0  0  0  1  1 >    2796.51 
 VCI[4] |  0  0  0  0  2  0  1  0  1 >    2798.49 
 VCI[4] |  0  0  0  1  1  0  1  0  1 >    2798.73 
 VCI[4] |  0  0  0  1  1  0  0  1  1 >    2799.47 
 VCI[4] |  0  0  0  0  0  1  0  0  2 >    2800.85 
 VCI[4] |  1  0  0  0  0  1  1  0  1 >    2801.69 
 VCI[4] |  0  0  0  2  0  0  1  0  1 >    2801.87 
 VCI[4] |  0  0  0  0  2  0  0  1  1 >    2802.43 
 VCI[4] |  1  0  0  0  0  1  0  1  1 >    2803.30 
 VCI[4] |  0  1  0  0  0  1  1  0  1 >    2804.99 
 VCI[4] |  0  1  0  0  0  1  0  1  1 >    2806.60 
 VCI[4] |  0  0  0  0  0  2  2  0  0 >    2817.32 
 VCI[4] |  0  0  0  0  0  2  1  1  0 >    2820.51 
 VCI[4] |  0  0  0  0  0  2  0  2  0 >    2824.68 
 VCI[4] |  0  0  1  0  0  0  2  1  0 >    2838.13 
 VCI[4] |  0  0  1  0  0  0  0  3  0 >    2853.07 
 VCI[4] |  0  0  1  0  0  0  1  2  0 >    2853.76 
 VCI[4] |  0  0  0  0  0  3  0  0  1 >    2855.81 
 VCI[4] |  0  0  1  0  0  0  3  0  0 >    2857.31 
 VCI[4] |  0  0  0  0  1  0  2  1  0 >    2894.24 
 VCI[4] |  0  0  0  1  0  0  2  1  0 >    2894.73 
 VCI[4] |  2  0  0  0  0  0  0  0  2 >    2896.02 
 VCI[4] |  1  1  0  0  0  0  0  0  2 >    2899.31 
 VCI[4] |  0  2  0  0  0  0  0  0  2 >    2902.60 
 VCI[4] |  0  0  0  1  0  0  1  2  0 >    2907.44 
 VCI[4] |  0  0  0  1  0  0  0  3  0 >    2907.80 
 VCI[4] |  0  0  0  0  1  0  3  0  0 >    2908.99 
 VCI[4] |  0  0  1  0  0  1  1  0  1 >    2910.28 
 VCI[4] |  0  0  1  0  0  1  0  1  1 >    2912.04 
 VCI[4] |  0  0  0  0  1  0  0  3  0 >    2912.34 
 VCI[4] |  0  0  0  0  1  0  1  2  0 >    2913.35 
 VCI[4] |  0  0  0  1  0  0  3  0  0 >    2921.83 
 VCI[4] |  0  0  0  0  1  1  1  0  1 >    2965.23 
 VCI[4] |  0  0  0  1  0  1  0  1  1 >    2965.73 
 VCI[4] |  0  0  0  1  0  1  1  0  1 >    2966.33 
 VCI[4] |  0  0  0  0  1  1  0  1  1 >    2968.80 
 VCI[4] |  1  0  1  0  0  0  0  0  2 >    3001.91 
 VCI[4] |  0  1  1  0  0  0  0  0  2 >    3005.21 
 VCI[4] |  1  0  0  1  0  0  0  0  2 >    3046.86 
 VCI[4] |  1  0  0  0  1  0  0  0  2 >    3048.65 
 VCI[4] |  0  1  0  1  0  0  0  0  2 >    3050.15 
 VCI[4] |  0  1  0  0  1  0  0  0  2 >    3051.94 
 VCI[4] |  1  0  0  0  0  0  1  1  1 >    3056.15 
 VCI[4] |  1  0  0  0  0  0  0  2  1 >    3057.77 
 VCI[4] |  0  1  0  0  0  0  1  1  1 >    3059.44 
 VCI[4] |  1  0  0  0  0  0  2  0  1 >    3060.12 
 VCI[4] |  0  1  0  0  0  0  0  2  1 >    3061.06 
 VCI[4] |  0  1  0  0  0  0  2  0  1 >    3063.41 
 VCI[4] |  0  0  0  0  0  0  1  0  2 >    3068.10 
 VCI[4] |  0  0  0  0  0  0  0  1  2 >    3068.56 
 VCI[4] |  0  0  0  0  0  1  2  1  0 >    3078.56 
 VCI[4] |  0  0  0  0  0  1  3  0  0 >    3087.53 
 VCI[4] |  0  0  0  0  0  1  0  3  0 >    3091.39 
 VCI[4] |  0  0  0  0  0  1  1  2  0 >    3092.69 
 VCI[4] |  0  0  2  0  0  0  0  0  2 >    3107.70 
 VCI[4] |  0  0  0  0  0  2  1  0  1 >    3128.29 
 VCI[4] |  0  0  0  0  0  2  0  1  1 >    3131.13 
 VCI[4] |  0  0  1  1  0  0  0  0  2 >    3152.94 
 VCI[4] |  0  0  1  0  1  0  0  0  2 >    3154.58 
 VCI[4] |  0  0  1  0  0  0  1  1  1 >    3163.50 
 VCI[4] |  0  0  1  0  0  0  0  2  1 >    3164.92 
 VCI[4] |  0  0  1  0  0  0  2  0  1 >    3167.43 
 VCI[4] |  0  0  0  2  0  0  0  0  2 >    3198.89 
 VCI[4] |  0  0  0  1  1  0  0  0  2 >    3200.04 
 VCI[4] |  0  0  0  0  2  0  0  0  2 >    3201.81 
 VCI[4] |  1  0  0  0  0  1  0  0  2 >    3205.69 
 VCI[4] |  0  1  0  0  0  1  0  0  2 >    3208.98 
 VCI[4] |  0  0  0  1  0  0  1  1  1 >    3215.23 
 VCI[4] |  0  0  0  0  1  0  2  0  1 >    3216.97 
 VCI[4] |  0  0  0  1  0  0  0  2  1 >    3217.38 
 VCI[4] |  0  0  0  0  1  0  1  1  1 >    3217.52 
 VCI[4] |  0  0  0  0  1  0  0  2  1 >    3221.78 
 VCI[4] |  0  0  0  1  0  0  2  0  1 >    3223.30 
 VCI[4] |  0  0  1  0  0  1  0  0  2 >    3312.52 
 VCI[4] |  0  0  0  0  0  0  2  2  0 >    3320.97 
 VCI[4] |  0  0  0  0  0  0  3  1  0 >    3322.45 
 VCI[4] |  0  0  0  0  0  0  0  4  0 >    3352.20 
 VCI[4] |  0  0  0  0  0  0  1  3  0 >    3357.88 
 VCI[4] |  0  0  0  1  0  1  0  0  2 >    3360.28 
 VCI[4] |  0  0  0  0  1  1  0  0  2 >    3361.79 
 VCI[4] |  0  0  0  0  0  0  4  0  0 >    3366.90 
 VCI[4] |  0  0  0  0  0  1  2  0  1 >    3393.15 
 VCI[4] |  0  0  0  0  0  1  1  1  1 >    3393.33 
 VCI[4] |  0  0  0  0  0  0  0  0  3 >    3396.28 
 VCI[4] |  0  0  0  0  0  1  0  2  1 >    3397.32 
 VCI[4] |  1  0  0  0  0  0  1  0  2 >    3447.25 
 VCI[4] |  1  0  0  0  0  0  0  1  2 >    3447.66 
 VCI[4] |  0  1  0  0  0  0  1  0  2 >    3450.54 
 VCI[4] |  0  1  0  0  0  0  0  1  2 >    3450.96 
 VCI[4] |  0  0  0  0  0  2  0  0  2 >    3518.90 
 VCI[4] |  0  0  1  0  0  0  1  0  2 >    3552.76 
 VCI[4] |  0  0  1  0  0  0  0  1  2 >    3553.31 
 VCI[4] |  0  0  0  1  0  0  0  1  2 >    3599.59 
 VCI[4] |  0  0  0  0  1  0  1  0  2 >    3600.52 
 VCI[4] |  0  0  0  1  0  0  1  0  2 >    3601.60 
 VCI[4] |  0  0  0  0  1  0  0  1  2 >    3602.93 
 VCI[4] |  0  0  0  0  0  0  2  1  1 >    3631.65 
 VCI[4] |  0  0  0  0  0  0  1  2  1 >    3647.92 
 VCI[4] |  0  0  0  0  0  0  0  3  1 >    3648.78 
 VCI[4] |  0  0  0  0  0  0  3  0  1 >    3653.58 
 VCI[4] |  0  0  0  0  0  1  1  0  2 >    3766.58 
 VCI[4] |  0  0  0  0  0  1  0  1  2 >    3768.20 
 VCI[4] |  1  0  0  0  0  0  0  0  3 >    3971.18 
 VCI[4] |  0  1  0  0  0  0  0  0  3 >    3974.47 
 VCI[4] |  0  0  0  0  0  0  1  1  2 >    4005.82 
 VCI[4] |  0  0  0  0  0  0  0  2  2 >    4006.52 
 VCI[4] |  0  0  0  0  0  0  2  0  2 >    4010.45 
 VCI[4] |  0  0  1  0  0  0  0  0  3 >    4076.30 
 VCI[4] |  0  0  0  1  0  0  0  0  3 >    4116.97 
 VCI[4] |  0  0  0  0  1  0  0  0  3 >    4118.13 
 VCI[4] |  0  0  0  0  0  1  0  0  3 >    4280.02 
 VCI[4] |  0  0  0  0  0  0  1  0  3 >    4500.71 
 VCI[4] |  0  0  0  0  0  0  0  1  3 >    4501.22 
 VCI[4] |  0  0  0  0  0  0  0  0  4 >    5158.25 
 -----------------------------------------------------------
 VCI[4] construnction time:  CPU    9.66 s  wall    9.66 s
 -----------------------------------------------------------
 VCI time:                    CPU   11.17 s  wall   10.64 s
 ----------------------------------------------------------------
             Standard Nuclear Orientation (Angstroms)
    I     Atom           X                Y                Z
 ----------------------------------------------------------------
    1      C      -0.0000000000    -0.0000000000     0.2591052280
    2      Cl      1.6748152480     0.0000000000    -0.3090051147
    3      Cl     -0.8374076240     1.4504325514    -0.3090051147
    4      Cl     -0.8374076240    -1.4504325514    -0.3090051147
    5      F      -0.0000000000    -0.0000000000     1.5782921646
 ----------------------------------------------------------------
 Nuclear Repulsion Energy =         367.64103552 hartrees
 There are       33 alpha and       33 beta electrons

 = Finishing finite difference calculation for ANHAR =
 =====================================================
 =====================================================
 Requested basis set is def2-TZVP
 There are 61 shells and 173 basis functions
 **********************************************************************
 **                                                                  **
 **                       VIBRATIONAL ANALYSIS                       **
 **                       --------------------                       **
 **                                                                  **
 **        VIBRATIONAL FREQUENCIES (CM**-1) AND NORMAL MODES         **
 **     FORCE CONSTANTS (mDYN/ANGSTROM) AND REDUCED MASSES (AMU)     **
 **                  INFRARED INTENSITIES (KM/MOL)                   **
 **                                                                  **
 **********************************************************************
 

 Mode:                 1                      2                      3
 Frequency:       243.10                 246.40                 351.35
 Force Cnst:      1.0465                 1.0719                 1.8630
 Red. Mass:      30.0551                29.9674                25.6148
 IR Active:          YES                    YES                    YES
 IR Intens:        0.048                  0.033                  0.178
 Raman Active:       YES                    YES                    YES
               X      Y      Z        X      Y      Z        X      Y      Z
 C         -0.205  0.000  0.009   -0.000 -0.209  0.000    0.010 -0.000  0.470
 Cl        -0.338 -0.000 -0.222   -0.000  0.559 -0.000   -0.371  0.000 -0.153
 Cl         0.339  0.384  0.106    0.385 -0.108 -0.191    0.188 -0.345 -0.145
 Cl         0.339 -0.384  0.106   -0.385 -0.108  0.191    0.188  0.345 -0.145
 F         -0.497  0.000  0.013   -0.000 -0.501  0.000   -0.015  0.000  0.518
 TransDip   0.007 -0.000 -0.000    0.000  0.006  0.000    0.001 -0.000 -0.013

 Mode:                 4                      5                      6
 Frequency:       403.73                 404.82                 542.47
 Force Cnst:      2.4272                 2.4465                 3.8679
 Red. Mass:      25.2739                25.3374                22.3092
 IR Active:          YES                    YES                    YES
 IR Intens:        0.400                  0.496                  3.170
 Raman Active:       YES                    YES                    YES
               X      Y      Z        X      Y      Z        X      Y      Z
 C         -0.085 -0.000  0.008    0.000 -0.082 -0.000    0.007  0.000  0.546
 Cl        -0.404  0.000  0.307    0.000  0.132 -0.000    0.285 -0.000 -0.167
 Cl         0.007  0.212 -0.156    0.227 -0.261  0.267   -0.146  0.251 -0.174
 Cl         0.007 -0.212 -0.156   -0.227 -0.261 -0.267   -0.146 -0.251 -0.174
 F          0.772  0.000  0.005   -0.000  0.770 -0.000    0.010  0.000  0.603
 TransDip   0.020  0.000 -0.001   -0.000  0.023  0.000    0.003  0.000  0.057

 Mode:                 7                      8                      9
 Frequency:       815.46                 815.96                1153.93
 Force Cnst:      5.0347                 5.0406                10.8196
 Red. Mass:      12.8506                12.8498                13.7911
 IR Active:          YES                    YES                    YES
 IR Intens:      297.226                297.620                213.337
 Raman Active:       YES                    YES                    YES
               X      Y      Z        X      Y      Z        X      Y      Z
 C          0.975 -0.000 -0.006    0.000  0.975 -0.000    0.003 -0.000  0.863
 Cl        -0.139  0.000  0.022   -0.000 -0.035  0.000   -0.000  0.000 -0.008
 Cl        -0.062  0.045 -0.010    0.045 -0.113  0.017    0.000  0.000 -0.007
 Cl        -0.062 -0.045 -0.010   -0.045 -0.113 -0.017    0.000 -0.000 -0.007
 F         -0.133  0.000 -0.003   -0.000 -0.136 -0.000   -0.002  0.000 -0.505
 TransDip   0.552 -0.000 -0.001    0.000  0.553  0.000    0.002 -0.000  0.468

 ======================================================================
                     VIBRATIONAL ANHARMONIC ANALYSIS                   
                     -------------------------------                   
 WARNING! Low frequency modes less than  300 are treated as rotation
 No anharmonic shift applied, please see IGNORE_LOW_FREQ for more details.
 WARNING! THESE RESULTS ARE CALCULATED WTIHOUT Eta_ijk AND Eta_ijkl
                                                                       
 TOSH[ 1]   243.10    VPT2[ 1]   243.10
 TOSH[ 2]   246.40    VPT2[ 2]   246.40
 TOSH[ 3]   348.67    VPT2[ 3]   348.38
 TOSH[ 4]   401.20    VPT2[ 4]   400.85
 TOSH[ 5]   402.19    VPT2[ 5]   402.19
 TOSH[ 6]   540.28    VPT2[ 6]   538.17
 TOSH[ 7]   809.79    VPT2[ 7]   811.76
 TOSH[ 8]   808.13    VPT2[ 8]   808.13
 TOSH[ 9]  1124.18    VPT2[ 9]  1122.24

 VCI[ 1]mode[ 1]=  1.00 quanta *  253.32
 VCI[ 1]mode[ 2]=  1.00 quanta *  256.62
 VCI[ 1]mode[ 3]=  1.00 quanta *  360.88
 VCI[ 1]mode[ 4]=  1.00 quanta *  414.27
 VCI[ 1]mode[ 5]=  1.00 quanta *  415.33
 VCI[ 1]mode[ 6]=  0.99 quanta *  562.49
 VCI[ 1]mode[ 7]=  1.00 quanta *  830.79
 VCI[ 1]mode[ 8]=  1.00 quanta *  830.99
 VCI[ 1]mode[ 9]=  1.00 quanta * 1179.82

 VCI[ 2]mode[ 1]=  0.99 quanta *  243.27
 VCI[ 2]mode[ 2]=  0.99 quanta *  246.56
 VCI[ 2]mode[ 3]=  0.99 quanta *  348.80
 VCI[ 2]mode[ 4]=  0.99 quanta *  401.45
 VCI[ 2]mode[ 5]=  0.99 quanta *  402.66
 VCI[ 2]mode[ 6]=  0.97 quanta *  539.72
 VCI[ 2]mode[ 7]=  0.90 quanta *  808.61
 VCI[ 2]mode[ 8]=  0.98 quanta *  810.78
 VCI[ 2]mode[ 9]=  0.97 quanta * 1131.42

 VCI[ 3]mode[ 1]=  0.99 quanta *  246.38
 VCI[ 3]mode[ 2]=  0.99 quanta *  249.67
 VCI[ 3]mode[ 3]=  0.99 quanta *  351.79
 VCI[ 3]mode[ 4]=  0.99 quanta *  404.45
 VCI[ 3]mode[ 5]=  0.99 quanta *  405.65
 VCI[ 3]mode[ 6]=  0.97 quanta *  542.34
 VCI[ 3]mode[ 7]=  0.86 quanta *  816.08
 VCI[ 3]mode[ 8]=  0.98 quanta *  813.23
 VCI[ 3]mode[ 9]=  0.97 quanta * 1132.93

 VCI[ 4]mode[ 1]=  0.99 quanta *  243.23
 VCI[ 4]mode[ 2]=  0.99 quanta *  246.52
 VCI[ 4]mode[ 3]=  0.99 quanta *  348.49
 VCI[ 4]mode[ 4]=  0.99 quanta *  401.01
 VCI[ 4]mode[ 5]=  0.99 quanta *  402.29
 VCI[ 4]mode[ 6]=  0.97 quanta *  538.58
 VCI[ 4]mode[ 7]=  0.75 quanta *  812.70
 VCI[ 4]mode[ 8]=  0.98 quanta *  808.32
 VCI[ 4]mode[ 9]=  0.97 quanta * 1124.97

 ======================================================================

 STANDARD THERMODYNAMIC QUANTITIES AT   298.15 K  AND     1.00 ATM

   This Molecule has  0 Imaginary Frequencies
   Zero point vibrational energy:        7.115 kcal/mol

   Atom    1 Element C  Has Mass   12.00000
   Atom    2 Element Cl Has Mass   34.96885
   Atom    3 Element Cl Has Mass   34.96885
   Atom    4 Element Cl Has Mass   34.96885
   Atom    5 Element F  Has Mass   18.99840
   Molecular Mass:   135.904950 amu
   Principal axes and moments of inertia in amu*Bohr^2:
                             1           2           3
    Eigenvalues --      733.05408   733.05408  1050.83409
          X              -0.42080     0.90715     0.00000
          Y               0.90715     0.42080     0.00000
          Z               0.00000     0.00000     1.00000
   Rotational Symmetry Number is   3
   The Molecule is a Symmetric Top
   Translational Enthalpy:        0.889 kcal/mol
   Rotational Enthalpy:           0.889 kcal/mol
   Vibrational Enthalpy:          8.572 kcal/mol
   gas constant (RT):             0.592 kcal/mol
   Translational Entropy:        40.632  cal/mol.K
   Rotational Entropy:           25.642  cal/mol.K
   Vibrational Entropy:           7.590  cal/mol.K

   Total Enthalpy:               10.941 kcal/mol
   Total Entropy:                73.865  cal/mol.K

 ======================================================================

 STANDARD THERMODYNAMIC QUANTITIES FOR ANHARMONIC VIBRATION -- TOSH

   Zero point vibrational energy:        7.039 kcal/mol

   Vibrational Enthalpy:          8.505 kcal/mol
   Vibrational Entropy:           7.643  cal/mol.K

   Total Enthalpy:               10.875 kcal/mol
   Total Entropy:                73.917  cal/mol.K

 ======================================================================

 STANDARD THERMODYNAMIC QUANTITIES FOR ANHARMONIC VIBRATION -- VPT2

   Zero point vibrational energy:        7.035 kcal/mol

   Vibrational Enthalpy:          8.502 kcal/mol
   Vibrational Entropy:           7.649  cal/mol.K

   Total Enthalpy:               10.872 kcal/mol
   Total Entropy:                73.923  cal/mol.K

 ======================================================================

 STANDARD THERMODYNAMIC QUANTITIES FOR ANHARMONIC VIBRATION -- VCI 4

   Zero point vibrational energy:        7.042 kcal/mol

   Vibrational Enthalpy:          8.508 kcal/mol
   Vibrational Entropy:           7.643  cal/mol.K

   Total Enthalpy:               10.878 kcal/mol
   Total Entropy:                73.918  cal/mol.K

 ======================================================================
 
Archival summary:
1\1\gadi-cpu-clx-0861.gadi.nci.org.au\FREQ\ProcedureUnspecified\BasisUnspecified\l311\pk8622\MonJun2211:39:092020MonJun2211:39:092020\0\\#,FREQ,ProcedureUnspecified,BasisUnspecified,\\0,1\Cl\C,1,1.76855\F,2,1.31919,1,108.737\Cl,2,1.76855,1,110.195,3,-119.091,0\Cl,2,1.76855,1,110.195,3,119.091,0\\\@

 Total job time:  4438.75s(wall), 17668.45s(cpu) 
 Mon Jun 22 11:39:09 2020

        *************************************************************
        *                                                           *
        *  Thank you very much for using Q-Chem.  Have a nice day.  *
        *                                                           *
        *************************************************************


