                  Welcome to Q-Chem
     A Quantum Leap Into The Future Of Chemistry


 Q-Chem 5.2 (devel), Q-Chem, Inc., Pleasanton, CA (2019)

 Yihan Shao,  Zhengting Gan,  E. Epifanovsky,  A. T. B. Gilbert,  M. Wormit,  
 J. Kussmann,  A. W. Lange,  A. Behn,  Jia Deng,  Xintian Feng,  D. Ghosh,  
 M. Goldey,  P. R. Horn,  L. D. Jacobson,  I. Kaliman,  T. Kus,  A. Landau,  
 Jie Liu,  E. I. Proynov,  R. M. Richard,  R. P. Steele,  E. J. Sundstrom,  
 H. L. Woodcock III,  P. M. Zimmerman,  D. Zuev,  B. Albrecht,  E. Alguire,  
 S. A. Baeppler,  D. Barton,  Z. Benda,  Y. A. Bernard,  E. J. Berquist,  
 K. B. Bravaya,  H. Burton,  D. Casanova,  Chun-Min Chang,  Yunqing Chen,  
 A. Chien,  K. D. Closser,  M. P. Coons,  S. Coriani,  S. Dasgupta,  
 A. L. Dempwolff,  M. Diedenhofen,  Hainam Do,  R. G. Edgar,  Po-Tung Fang,  
 S. Faraji,  S. Fatehi,  Qingguo Feng,  K. D. Fenk,  J. Fosso-Tande,  
 J. Gayvert,  Qinghui Ge,  A. Ghysels,  G. Gidofalvi,  J. Gomes,  
 J. Gonthier,  A. Gunina,  D. Hait,  M. W. D. Hanson-Heine,  
 P. H. P. Harbach,  A. W. Hauser,  M. F. Herbst,  J. E. Herr,  
 E. G. Hohenstein,  Z. C. Holden,  Kerwin Hui,  B. C. Huynh,  T.-C. Jagau,  
 Hyunjun Ji,  B. Kaduk,  K. Khistyaev,  Jaehoon Kim,  P. Klunzinger,  K. Koh,  
 D. Kosenkov,  L. Koulias,  T. Kowalczyk,  C. M. Krauter,  A. Kunitsa,  
 Ka Un Lao,  A. Laurent,  K. V. Lawler,  Joonho Lee,  D. Lefrancois,  
 S. Lehtola,  D. S. Levine,  Yi-Pei Li,  You-Sheng Lin,  Fenglai Liu,  
 E. Livshits,  A. Luenser,  P. Manohar,  E. Mansoor,  S. F. Manzer,  
 Shan-Ping Mao,  Yuezhi Mao,  N. Mardirossian,  A. V. Marenich,  
 T. Markovich,  L. A. Martinez-Martinez,  S. A. Maurer,  N. J. Mayhall,  
 S. C. McKenzie,  J.-M. Mewes,  P. Morgante,  A. F. Morrison,  
 J. W. Mullinax,  K. Nanda,  T. S. Nguyen-Beck,  R. Olivares-Amaya,  
 J. A. Parkhill,  Zheng Pei,  T. M. Perrine,  F. Plasser,  P. Pokhilko,  
 S. Prager,  A. Prociuk,  E. Ramos,  D. R. Rehn,  F. Rob,  M. Scheurer,  
 M. Schneider,  N. Sergueev,  S. M. Sharada,  S. Sharma,  D. W. Small,  
 T. Stauch,  T. Stein,  Yu-Chuan Su,  A. J. W. Thom,  A. Tkatchenko,  
 T. Tsuchimochi,  N. M. Tubman,  L. Vogt,  M. L. Vidal,  O. Vydrov,  
 M. A. Watson,  J. Wenzel,  M. de Wergifosse,  T. A. Wesolowski,  A. White,  
 J. Witte,  A. Yamada,  Jun Yang,  K. Yao,  S. Yeganeh,  S. R. Yost,  
 Zhi-Qiang You,  A. Zech,  Igor Ying Zhang,  Xing Zhang,  Yan Zhao,  
 Ying Zhu,  B. R. Brooks,  G. K. L. Chan,  C. J. Cramer,  M. S. Gordon,  
 W. J. Hehre,  A. Klamt,  M. W. Schmidt,  C. D. Sherrill,  D. G. Truhlar,  
 A. Aspuru-Guzik,  R. Baer,  A. T. Bell,  N. A. Besley,  Jeng-Da Chai,  
 A. E. DePrince, III,  R. A. DiStasio Jr.,  A. Dreuw,  B. D. Dunietz,  
 T. R. Furlani,  Chao-Ping Hsu,  Yousung Jung,  Jing Kong,  D. S. Lambrecht,  
 WanZhen Liang,  C. Ochsenfeld,  V. A. Rassolov,  L. V. Slipchenko,  
 J. E. Subotnik,  T. Van Voorhis,  J. M. Herbert,  A. I. Krylov,  
 P. M. W. Gill,  M. Head-Gordon

 Contributors to earlier versions of Q-Chem not listed above: 
 R. D. Adamson,  B. Austin,  J. Baker,  G. J. O. Beran,  K. Brandhorst,  
 S. T. Brown,  E. F. C. Byrd,  A. K. Chakraborty,  C.-L. Cheng,  
 Siu Hung Chien,  D. M. Chipman,  D. L. Crittenden,  H. Dachsel,  
 R. J. Doerksen,  A. D. Dutoi,  L. Fusti-Molnar,  W. A. Goddard III,  
 A. Golubeva-Zadorozhnaya,  S. R. Gwaltney,  G. Hawkins,  A. Heyden,  
 S. Hirata,  G. Kedziora,  F. J. Keil,  C. Kelley,  Jihan Kim,  R. A. King,  
 R. Z. Khaliullin,  P. P. Korambath,  W. Kurlancheek,  A. M. Lee,  M. S. Lee,  
 S. V. Levchenko,  Ching Yeh Lin,  D. Liotard,  R. C. Lochan,  I. Lotan,  
 P. E. Maslen,  N. Nair,  D. P. O'Neill,  D. Neuhauser,  E. Neuscamman,  
 C. M. Oana,  R. Olson,  B. Peters,  R. Peverati,  P. A. Pieniazek,  
 Y. M. Rhee,  J. Ritchie,  M. A. Rohrdanz,  E. Rosta,  N. J. Russ,  
 H. F. Schaefer III,  N. E. Schultz,  N. Shenvi,  A. C. Simmonett,  A. Sodt,  
 D. Stuck,  K. S. Thanthiriwatte,  V. Vanovschi,  Tao Wang,  A. Warshel,  
 C. F. Williams,  Q. Wu,  X. Xu,  W. Zhang

 Please cite Q-Chem as follows:
 Y. Shao et al., Mol. Phys. 113, 184-215 (2015)
 DOI: 10.1080/00268976.2014.952696

 Q-Chem 5.2.0 for Intel X86 EM64T Linux

 Parts of Q-Chem use Armadillo 8.300.2 (Tropical Shenanigans).
 http://arma.sourceforge.net/

 Q-Chem begins on Fri Jun 19 01:08:23 2020  

Host: gadi-cpu-clx-2651.gadi.nci.org.au
0

     Scratch files written to /jobfs/7377773.gadi-pbs/qchem87511//
NAlpha2: 10
NElect   10
Mult     1

Checking the input file for inconsistencies... 	...done.

--------------------------------------------------------------
User input:
--------------------------------------------------------------
$comment
	QCHEM - Water
	Geometry optimization
	Anharmonic frequency analysis
$end

$molecule
0 1
O	 0.17795	1.34789		 0.02109	
H	 1.16728	1.37117		-0.01489
H	-0.11141	1.86226		-0.77408
$end

$rem
	JOBTYPE	OPT
	METHOD	wB97XD
	BASIS	def2-TZVP
$end

--------------------------------------------------------------
 ----------------------------------------------------------------
             Standard Nuclear Orientation (Angstroms)
    I     Atom           X                Y                Z
 ----------------------------------------------------------------
    1      O       0.0000011447    -0.1212367867    -0.0000000000
    2      H      -0.7830414491     0.4849436022    -0.0000000000
    3      H       0.7830322912     0.4849506917     0.0000000000
 ----------------------------------------------------------------
 Molecular Point Group                 Cs    NOp =  2
 Largest Abelian Subgroup              Cs    NOp =  2
 Nuclear Repulsion Energy =           8.88802129 hartrees
 There are        5 alpha and        5 beta electrons
 Requested basis set is def2-TZVP
 There are 19 shells and 43 basis functions

 Total QAlloc Memory Limit   2000 MB
 Mega-Array Size       188 MB
 MEM_STATIC part       192 MB
 A cutoff of  1.0D-11 yielded    190 shell pairs
 There are      1002 function pairs (      1266 Cartesian)
 Smallest overlap matrix eigenvalue = 9.57E-03

 Scale SEOQF with 1.000000e+00/1.000000e+00/1.000000e+00

 Standard Electronic Orientation quadrupole field applied
 Nucleus-field energy     =     0.0000000009 hartrees
 Guess from superposition of atomic densities
 Warning:  Energy on first SCF cycle will be non-variational
 SAD guess density has 10.000000 electrons

 -----------------------------------------------------------------------
  General SCF calculation program by
  Eric Jon Sundstrom, Paul Horn, Yuezhi Mao, Dmitri Zuev, Alec White,
  David Stuck, Shaama M.S., Shane Yost, Joonho Lee, David Small,
  Daniel Levine, Susi Lehtola, Hugh Burton, Evgeny Epifanovsky
 -----------------------------------------------------------------------
 Exchange:     0.2220 Hartree-Fock + 1.0000 wB97X-D + LR-HF
 Correlation:  1.0000 wB97X-D
 Using SG-2 standard quadrature grid
 Dispersion:   Grimme D
 A restricted SCF calculation will be
 performed using DIIS
 SCF converges when DIIS error is below 1.0e-08
 ---------------------------------------
  Cycle       Energy         DIIS error
 ---------------------------------------
    1     -76.3008117069      7.05e-02  
    2     -76.3738556788      1.87e-02  
    3     -76.3786133581      1.95e-02  
    4     -76.4342071552      8.62e-04  
    5     -76.4343114260      2.20e-04  
    6     -76.4343204273      2.22e-05  
    7     -76.4343205463      2.24e-06  
    8     -76.4343205481      2.51e-07  
    9     -76.4343205481      3.78e-08  
   10     -76.4343205481      6.03e-09  Convergence criterion met
 ---------------------------------------
 SCF time:   CPU 2.03s  wall 2.00s 
 SCF   energy in the final basis set =      -76.4343205481
 Total energy in the final basis set =      -76.4343205481
 
 --------------------------------------------------------------
             Orbital Energies (a.u.) and Symmetries
 --------------------------------------------------------------
 
 Alpha MOs, Restricted
 -- Occupied --                  
-19.251  -1.100  -0.608  -0.474  -0.398
  1 A'    2 A'    3 A'    4 A'    1 A"                                         
 -- Virtual --                   
  0.097   0.170   0.436   0.485   0.520   0.523   0.652   0.677
  5 A'    6 A'    7 A'    8 A'    2 A"    9 A'   10 A'   11 A'                 
  1.244   1.267   1.376   1.634   1.731   1.810   2.099   2.126
 12 A'    3 A"    4 A"   13 A'   14 A'   15 A'   16 A'    5 A"                 
  2.166   2.383   2.451   2.618   2.642   2.709   2.858   3.702
  6 A"   17 A'   18 A'   19 A'   20 A'    7 A"   21 A'   22 A'                 
  3.967   5.194   5.285   5.446   5.469   5.520   6.016   6.237
 23 A'    8 A"   24 A'    9 A"   10 A"   25 A'   26 A'   27 A'                 
  6.397   6.456   6.509   6.918   7.073  43.370
 11 A"   12 A"   28 A'   29 A'   30 A'   31 A'                                 
 
 Beta MOs, Restricted
 -- Occupied --                  
-19.251  -1.100  -0.608  -0.474  -0.398
  1 A'    2 A'    3 A'    4 A'    1 A"                                         
 -- Virtual --                   
  0.097   0.170   0.436   0.485   0.520   0.523   0.652   0.677
  5 A'    6 A'    7 A'    8 A'    2 A"    9 A'   10 A'   11 A'                 
  1.244   1.267   1.376   1.634   1.731   1.810   2.099   2.126
 12 A'    3 A"    4 A"   13 A'   14 A'   15 A'   16 A'    5 A"                 
  2.166   2.383   2.451   2.618   2.642   2.709   2.858   3.702
  6 A"   17 A'   18 A'   19 A'   20 A'    7 A"   21 A'   22 A'                 
  3.967   5.194   5.285   5.446   5.469   5.520   6.016   6.237
 23 A'    8 A"   24 A'    9 A"   10 A"   25 A'   26 A'   27 A'                 
  6.397   6.456   6.509   6.918   7.073  43.370
 11 A"   12 A"   28 A'   29 A'   30 A'   31 A'                                 
 --------------------------------------------------------------
 
          Ground-State Mulliken Net Atomic Charges

     Atom                 Charge (a.u.)
  ----------------------------------------
      1 O                    -0.660417
      2 H                     0.330209
      3 H                     0.330209
  ----------------------------------------
  Sum of atomic charges =     0.000000

 -----------------------------------------------------------------
                    Cartesian Multipole Moments
 -----------------------------------------------------------------
    Charge (ESU x 10^10)
                 0.0000
    Dipole Moment (Debye)
         X      -0.0000      Y       2.1174      Z       0.0000
       Tot       2.1174
    Quadrupole Moments (Debye-Ang)
        XX      -4.2278     XY       0.0000     YY      -6.2435
        XZ      -0.0000     YZ       0.0000     ZZ      -7.5806
    Octopole Moments (Debye-Ang^2)
       XXX      -0.0000    XXY       1.4471    XYY       0.0000
       YYY       1.3878    XXZ      -0.0000    XYZ      -0.0000
       YYZ      -0.0000    XZZ      -0.0000    YZZ       0.3652
       ZZZ      -0.0000
    Hexadecapole Moments (Debye-Ang^3)
      XXXX      -6.2625   XXXY      -0.0000   XXYY      -1.8793
      XYYY       0.0000   YYYY      -7.2556   XXXZ      -0.0000
      XXYZ       0.0000   XYYZ      -0.0000   YYYZ       0.0000
      XXZZ      -2.4429   XYZZ       0.0000   YYZZ      -2.3493
      XZZZ      -0.0000   YZZZ       0.0000   ZZZZ      -6.4822
 -----------------------------------------------------------------
 Calculating analytic gradient of the SCF energy
 Gradient of SCF Energy
            1           2           3
    1   0.0000034  -0.0240382   0.0240348
    2  -0.0356193   0.0178107   0.0178086
    3  -0.0000000  -0.0000000   0.0000000
 Max gradient component =       3.562E-02
 RMS gradient           =       1.843E-02
 Gradient time:  CPU 0.50 s  wall 0.61 s
 Geometry Optimization Parameters
   NAtoms,    NIC,     NZ,  NCons,   NDum,   NFix, NCnnct, MaxDiis
        3       9       0       0       0       0       0       0


** GEOMETRY OPTIMIZATION IN DELOCALIZED INTERNAL COORDINATES **
   Searching for a Minimum

   Optimization Cycle:   1

                       Coordinates (Angstroms)
     ATOM                X               Y               Z
      1  O         0.0000011447   -0.1212367867    0.0000000000
      2  H        -0.7830414491    0.4849436022    0.0000000000
      3  H         0.7830322912    0.4849506917    0.0000000000
   Point Group: cs    Number of degrees of freedom:     3


   Energy is    -76.434320548


 Attempting to generate delocalized internal coordinates
 Initial Hessian constructed with Jon Baker's OPTIMIZE code

  3 Hessian modes will be used to form the next step
  Hessian Eigenvalues:
     0.160000    0.494430    0.494439

 Minimum search - taking simple RFO step
 Searching for Lamda that Minimizes Along All modes
 Value Taken    Lamda =  -0.00360060
 Step Taken.  Stepsize is  0.085235

                             Maximum     Tolerance    Cnvgd?
         Gradient           0.033434      0.000300      NO
         Displacement       0.064270      0.001200      NO
         Energy change     *********      0.000001      NO


 New Cartesian Coordinates Obtained by Inverse Iteration

 Displacement from previous Coordinates is:  0.077264
 ----------------------------------------------------------------
             Standard Nuclear Orientation (Angstroms)
    I     Atom           X                Y                Z
 ----------------------------------------------------------------
    1      O      -0.0000005991    -0.1100888028     0.0000000000
    2      H      -0.7557890382     0.4793690992     0.0000000000
    3      H       0.7557816241     0.4793772108     0.0000000000
 ----------------------------------------------------------------
 Molecular Point Group                 Cs    NOp =  2
 Largest Abelian Subgroup              Cs    NOp =  2
 Nuclear Repulsion Energy =           9.18369837 hartrees
 There are        5 alpha and        5 beta electrons
 Applying Cartesian multipole field
    Component          Value
    ---------          -----
     (2,0,0)        1.00000E-10
     (0,2,0)        2.00000E-10
     (0,0,2)       -3.00000E-10
 Nucleus-field energy     =     0.0000000008 hartrees
 Requested basis set is def2-TZVP
 There are 19 shells and 43 basis functions
 A cutoff of  1.0D-11 yielded    190 shell pairs
 There are      1002 function pairs (      1266 Cartesian)
 Smallest overlap matrix eigenvalue = 8.34E-03
 Guess MOs from SCF MO coefficient file

 -----------------------------------------------------------------------
  General SCF calculation program by
  Eric Jon Sundstrom, Paul Horn, Yuezhi Mao, Dmitri Zuev, Alec White,
  David Stuck, Shaama M.S., Shane Yost, Joonho Lee, David Small,
  Daniel Levine, Susi Lehtola, Hugh Burton, Evgeny Epifanovsky
 -----------------------------------------------------------------------
 Exchange:     0.2220 Hartree-Fock + 1.0000 wB97X-D + LR-HF
 Correlation:  1.0000 wB97X-D
 Using SG-2 standard quadrature grid
 Dispersion:   Grimme D
 A restricted SCF calculation will be
 performed using DIIS
 SCF converges when DIIS error is below 1.0e-08
 ---------------------------------------
  Cycle       Energy         DIIS error
 ---------------------------------------
    1     -76.4356393304      1.79e-03  
    2     -76.4360423171      1.01e-03  
    3     -76.4361563865      4.47e-04  
    4     -76.4361873473      4.48e-05  
    5     -76.4361880549      9.91e-06  
    6     -76.4361881264      1.06e-06  
    7     -76.4361881275      1.24e-07  
    8     -76.4361881275      1.32e-08  
    9     -76.4361881275      1.59e-09  Convergence criterion met
 ---------------------------------------
 SCF time:   CPU 1.74s  wall 2.00s 
 SCF   energy in the final basis set =      -76.4361881275
 Total energy in the final basis set =      -76.4361881275
 
 --------------------------------------------------------------
             Orbital Energies (a.u.) and Symmetries
 --------------------------------------------------------------
 
 Alpha MOs, Restricted
 -- Occupied --                  
-19.246  -1.114  -0.619  -0.477  -0.401
  1 A'    2 A'    3 A'    4 A'    1 A"                                         
 -- Virtual --                   
  0.104   0.176   0.446   0.499   0.520   0.529   0.660   0.679
  5 A'    6 A'    7 A'    8 A'    2 A"    9 A'   10 A'   11 A'                 
  1.244   1.275   1.380   1.613   1.729   1.843   2.070   2.151
 12 A'    3 A"    4 A"   13 A'   14 A'   15 A'   16 A'    5 A"                 
  2.188   2.373   2.464   2.683   2.705   2.718   2.877   3.742
  6 A"   17 A'   18 A'   19 A'   20 A'    7 A"   21 A'   22 A'                 
  4.023   5.188   5.294   5.469   5.496   5.547   6.146   6.316
 23 A'    8 A"   24 A'    9 A"   10 A"   25 A'   26 A'   27 A'                 
  6.401   6.461   6.520   6.993   7.089  43.359
 11 A"   12 A"   28 A'   29 A'   30 A'   31 A'                                 
 
 Beta MOs, Restricted
 -- Occupied --                  
-19.246  -1.114  -0.619  -0.477  -0.401
  1 A'    2 A'    3 A'    4 A'    1 A"                                         
 -- Virtual --                   
  0.104   0.176   0.446   0.499   0.520   0.529   0.660   0.679
  5 A'    6 A'    7 A'    8 A'    2 A"    9 A'   10 A'   11 A'                 
  1.244   1.275   1.380   1.613   1.729   1.843   2.070   2.151
 12 A'    3 A"    4 A"   13 A'   14 A'   15 A'   16 A'    5 A"                 
  2.188   2.373   2.464   2.683   2.705   2.718   2.877   3.742
  6 A"   17 A'   18 A'   19 A'   20 A'    7 A"   21 A'   22 A'                 
  4.023   5.188   5.294   5.469   5.496   5.547   6.146   6.316
 23 A'    8 A"   24 A'    9 A"   10 A"   25 A'   26 A'   27 A'                 
  6.401   6.461   6.520   6.993   7.089  43.359
 11 A"   12 A"   28 A'   29 A'   30 A'   31 A'                                 
 --------------------------------------------------------------
 
          Ground-State Mulliken Net Atomic Charges

     Atom                 Charge (a.u.)
  ----------------------------------------
      1 O                    -0.652648
      2 H                     0.326324
      3 H                     0.326324
  ----------------------------------------
  Sum of atomic charges =     0.000000

 -----------------------------------------------------------------
                    Cartesian Multipole Moments
 -----------------------------------------------------------------
    Charge (ESU x 10^10)
                -0.0000
    Dipole Moment (Debye)
         X      -0.0000      Y       2.1076      Z      -0.0000
       Tot       2.1076
    Quadrupole Moments (Debye-Ang)
        XX      -4.3077     XY       0.0000     YY      -6.1849
        XZ      -0.0000     YZ      -0.0000     ZZ      -7.5087
    Octopole Moments (Debye-Ang^2)
       XXX      -0.0000    XXY       1.3290    XYY       0.0000
       YYY       1.2841    XXZ      -0.0000    XYZ      -0.0000
       YYZ      -0.0000    XZZ       0.0000    YZZ       0.3291
       ZZZ      -0.0000
    Hexadecapole Moments (Debye-Ang^3)
      XXXX      -6.0287   XXXY      -0.0000   XXYY      -1.8184
      XYYY       0.0000   YYYY      -6.9884   XXXZ       0.0000
      XXYZ      -0.0000   XYYZ       0.0000   YYYZ      -0.0000
      XXZZ      -2.3485   XYZZ      -0.0000   YYZZ      -2.2844
      XZZZ       0.0000   YZZZ      -0.0000   ZZZZ      -6.3828
 -----------------------------------------------------------------
 Calculating analytic gradient of the SCF energy
 Gradient of SCF Energy
            1           2           3
    1  -0.0000001   0.0010082  -0.0010082
    2  -0.0033777   0.0016888   0.0016889
    3   0.0000000  -0.0000000  -0.0000000
 Max gradient component =       3.378E-03
 RMS gradient           =       1.459E-03
 Gradient time:  CPU 0.43 s  wall 0.46 s
 Geometry Optimization Parameters
   NAtoms,    NIC,     NZ,  NCons,   NDum,   NFix, NCnnct, MaxDiis
        3       9       0       0       0       0       0       0

 Cartesian Hessian Update
 Hessian updated using BFGS update


** GEOMETRY OPTIMIZATION IN DELOCALIZED INTERNAL COORDINATES **
   Searching for a Minimum

   Optimization Cycle:   2

                       Coordinates (Angstroms)
     ATOM                X               Y               Z
      1  O        -0.0000005991   -0.1100888028    0.0000000000
      2  H        -0.7557890382    0.4793690992    0.0000000000
      3  H         0.7557816241    0.4793772108    0.0000000000
   Point Group: cs    Number of degrees of freedom:     3


   Energy is    -76.436188128

 Hessian updated using BFGS update

  3 Hessian modes will be used to form the next step
  Hessian Eigenvalues:
     0.160605    0.494434    0.495661

 Minimum search - taking simple RFO step
 Searching for Lamda that Minimizes Along All modes
 Value Taken    Lamda =  -0.00007851
 Step Taken.  Stepsize is  0.022097

                             Maximum     Tolerance    Cnvgd?
         Gradient           0.002649      0.000300      NO
         Displacement       0.016201      0.001200      NO
         Energy change     -0.001868      0.000001      NO


 New Cartesian Coordinates Obtained by Inverse Iteration

 Displacement from previous Coordinates is:  0.020445
 ----------------------------------------------------------------
             Standard Nuclear Orientation (Angstroms)
    I     Atom           X                Y                Z
 ----------------------------------------------------------------
    1      O      -0.0000006333    -0.1041490771     0.0000000000
    2      H      -0.7614516317     0.4763992048     0.0000000000
    3      H       0.7614442518     0.4764073795     0.0000000000
 ----------------------------------------------------------------
 Molecular Point Group                 Cs    NOp =  2
 Largest Abelian Subgroup              Cs    NOp =  2
 Nuclear Repulsion Energy =           9.18991895 hartrees
 There are        5 alpha and        5 beta electrons
 Applying Cartesian multipole field
    Component          Value
    ---------          -----
     (2,0,0)        1.00000E-10
     (0,2,0)        2.00000E-10
     (0,0,2)       -3.00000E-10
 Nucleus-field energy     =     0.0000000008 hartrees
 Requested basis set is def2-TZVP
 There are 19 shells and 43 basis functions
 A cutoff of  1.0D-11 yielded    190 shell pairs
 There are      1002 function pairs (      1266 Cartesian)
 Smallest overlap matrix eigenvalue = 8.32E-03
 Guess MOs from SCF MO coefficient file

 -----------------------------------------------------------------------
  General SCF calculation program by
  Eric Jon Sundstrom, Paul Horn, Yuezhi Mao, Dmitri Zuev, Alec White,
  David Stuck, Shaama M.S., Shane Yost, Joonho Lee, David Small,
  Daniel Levine, Susi Lehtola, Hugh Burton, Evgeny Epifanovsky
 -----------------------------------------------------------------------
 Exchange:     0.2220 Hartree-Fock + 1.0000 wB97X-D + LR-HF
 Correlation:  1.0000 wB97X-D
 Using SG-2 standard quadrature grid
 Dispersion:   Grimme D
 A restricted SCF calculation will be
 performed using DIIS
 SCF converges when DIIS error is below 1.0e-08
 ---------------------------------------
  Cycle       Energy         DIIS error
 ---------------------------------------
    1     -76.4362101125      2.93e-04  
    2     -76.4362281051      5.46e-05  
    3     -76.4362287367      4.68e-05  
    4     -76.4362290596      6.51e-06  
    5     -76.4362290727      9.53e-07  
    6     -76.4362290731      1.93e-07  
    7     -76.4362290731      2.40e-08  
    8     -76.4362290731      2.33e-09  Convergence criterion met
 ---------------------------------------
 SCF time:   CPU 1.56s  wall 2.00s 
 SCF   energy in the final basis set =      -76.4362290731
 Total energy in the final basis set =      -76.4362290731
 
 --------------------------------------------------------------
             Orbital Energies (a.u.) and Symmetries
 --------------------------------------------------------------
 
 Alpha MOs, Restricted
 -- Occupied --                  
-19.245  -1.113  -0.622  -0.475  -0.401
  1 A'    2 A'    3 A'    4 A'    1 A"                                         
 -- Virtual --                   
  0.104   0.176   0.449   0.496   0.520   0.528   0.660   0.678
  5 A'    6 A'    7 A'    8 A'    2 A"    9 A'   10 A'   11 A'                 
  1.254   1.272   1.384   1.613   1.725   1.837   2.068   2.145
 12 A'    3 A"    4 A"   13 A'   14 A'   15 A'   16 A'    5 A"                 
  2.195   2.370   2.478   2.683   2.708   2.717   2.879   3.730
  6 A"   17 A'   18 A'   19 A'   20 A'    7 A"   21 A'   22 A'                 
  4.032   5.190   5.289   5.473   5.494   5.563   6.140   6.322
 23 A'    8 A"   24 A'    9 A"   10 A"   25 A'   26 A'   27 A'                 
  6.398   6.464   6.511   7.012   7.076  43.360
 11 A"   12 A"   28 A'   29 A'   30 A'   31 A'                                 
 
 Beta MOs, Restricted
 -- Occupied --                  
-19.245  -1.113  -0.622  -0.475  -0.401
  1 A'    2 A'    3 A'    4 A'    1 A"                                         
 -- Virtual --                   
  0.104   0.176   0.449   0.496   0.520   0.528   0.660   0.678
  5 A'    6 A'    7 A'    8 A'    2 A"    9 A'   10 A'   11 A'                 
  1.254   1.272   1.384   1.613   1.725   1.837   2.068   2.145
 12 A'    3 A"    4 A"   13 A'   14 A'   15 A'   16 A'    5 A"                 
  2.195   2.370   2.478   2.683   2.708   2.717   2.879   3.730
  6 A"   17 A'   18 A'   19 A'   20 A'    7 A"   21 A'   22 A'                 
  4.032   5.190   5.289   5.473   5.494   5.563   6.140   6.322
 23 A'    8 A"   24 A'    9 A"   10 A"   25 A'   26 A'   27 A'                 
  6.398   6.464   6.511   7.012   7.076  43.360
 11 A"   12 A"   28 A'   29 A'   30 A'   31 A'                                 
 --------------------------------------------------------------
 
          Ground-State Mulliken Net Atomic Charges

     Atom                 Charge (a.u.)
  ----------------------------------------
      1 O                    -0.656107
      2 H                     0.328054
      3 H                     0.328054
  ----------------------------------------
  Sum of atomic charges =     0.000000

 -----------------------------------------------------------------
                    Cartesian Multipole Moments
 -----------------------------------------------------------------
    Charge (ESU x 10^10)
                 0.0000
    Dipole Moment (Debye)
         X      -0.0000      Y       2.0876      Z       0.0000
       Tot       2.0876
    Quadrupole Moments (Debye-Ang)
        XX      -4.2540     XY       0.0000     YY      -6.2043
        XZ       0.0000     YZ       0.0000     ZZ      -7.5085
    Octopole Moments (Debye-Ang^2)
       XXX      -0.0000    XXY       1.3150    XYY       0.0000
       YYY       1.1837    XXZ       0.0000    XYZ      -0.0000
       YYZ       0.0000    XZZ       0.0000    YZZ       0.2946
       ZZZ       0.0000
    Hexadecapole Moments (Debye-Ang^3)
      XXXX      -5.9783   XXXY      -0.0000   XXYY      -1.8125
      XYYY       0.0000   YYYY      -6.9566   XXXZ       0.0000
      XXYZ       0.0000   XYYZ       0.0000   YYYZ       0.0000
      XXZZ      -2.3506   XYZZ      -0.0000   YYZZ      -2.2771
      XZZZ      -0.0000   YZZZ       0.0000   ZZZZ      -6.3845
 -----------------------------------------------------------------
 Calculating analytic gradient of the SCF energy
 Gradient of SCF Energy
            1           2           3
    1  -0.0000001   0.0001110  -0.0001110
    2  -0.0000770   0.0000385   0.0000386
    3  -0.0000000   0.0000000   0.0000000
 Max gradient component =       1.110E-04
 RMS gradient           =       6.105E-05
 Gradient time:  CPU 0.43 s  wall 0.45 s
 Geometry Optimization Parameters
   NAtoms,    NIC,     NZ,  NCons,   NDum,   NFix, NCnnct, MaxDiis
        3       9       0       0       0       0       0       0

 Cartesian Hessian Update
 Hessian updated using BFGS update


** GEOMETRY OPTIMIZATION IN DELOCALIZED INTERNAL COORDINATES **
   Searching for a Minimum

   Optimization Cycle:   3

                       Coordinates (Angstroms)
     ATOM                X               Y               Z
      1  O        -0.0000006333   -0.1041490771    0.0000000000
      2  H        -0.7614516317    0.4763992048    0.0000000000
      3  H         0.7614442518    0.4764073795    0.0000000000
   Point Group: cs    Number of degrees of freedom:     3


   Energy is    -76.436229073

 Hessian updated using BFGS update

  3 Hessian modes will be used to form the next step
  Hessian Eigenvalues:
     0.153213    0.494434    0.495617

 Minimum search - taking simple RFO step
 Searching for Lamda that Minimizes Along All modes
 Value Taken    Lamda =   0.00000000
 Step Taken.  Stepsize is  0.001107

                             Maximum     Tolerance    Cnvgd?
         Gradient           0.000197      0.000300     YES
         Displacement       0.000950      0.001200     YES
         Energy change     -0.000041      0.000001      NO


                       Distance Matrix (Angstroms)
             O (  1)   H (  2)
   H (  2)  0.957520
   H (  3)  0.957520  1.522896
 
 Final energy is   -76.4362290731242     


 ******************************
 **  OPTIMIZATION CONVERGED  **
 ******************************

                       Coordinates (Angstroms)
     ATOM                X               Y               Z
      1  O        -0.0000006333   -0.1041490771    0.0000000000
      2  H        -0.7614516317    0.4763992048    0.0000000000
      3  H         0.7614442518    0.4764073795    0.0000000000

Z-matrix Print:
$molecule
0 1
O 
H  1 0.957520
H  1 0.957520 2 105.353878
$end

 
 --------------------------------------------------------------
             Orbital Energies (a.u.) and Symmetries
 --------------------------------------------------------------
 
 Alpha MOs, Restricted
 -- Occupied --                  
-19.245  -1.113  -0.622  -0.475  -0.401
  1 A'    2 A'    3 A'    4 A'    1 A"                                         
 -- Virtual --                   
  0.104   0.176   0.449   0.496   0.520   0.528   0.660   0.678
  5 A'    6 A'    7 A'    8 A'    2 A"    9 A'   10 A'   11 A'                 
  1.254   1.272   1.384   1.613   1.725   1.837   2.068   2.145
 12 A'    3 A"    4 A"   13 A'   14 A'   15 A'   16 A'    5 A"                 
  2.195   2.370   2.478   2.683   2.708   2.717   2.879   3.730
  6 A"   17 A'   18 A'   19 A'   20 A'    7 A"   21 A'   22 A'                 
  4.032   5.190   5.289   5.473   5.494   5.563   6.140   6.322
 23 A'    8 A"   24 A'    9 A"   10 A"   25 A'   26 A'   27 A'                 
  6.398   6.464   6.511   7.012   7.076  43.360
 11 A"   12 A"   28 A'   29 A'   30 A'   31 A'                                 
 
 Beta MOs, Restricted
 -- Occupied --                  
-19.245  -1.113  -0.622  -0.475  -0.401
  1 A'    2 A'    3 A'    4 A'    1 A"                                         
 -- Virtual --                   
  0.104   0.176   0.449   0.496   0.520   0.528   0.660   0.678
  5 A'    6 A'    7 A'    8 A'    2 A"    9 A'   10 A'   11 A'                 
  1.254   1.272   1.384   1.613   1.725   1.837   2.068   2.145
 12 A'    3 A"    4 A"   13 A'   14 A'   15 A'   16 A'    5 A"                 
  2.195   2.370   2.478   2.683   2.708   2.717   2.879   3.730
  6 A"   17 A'   18 A'   19 A'   20 A'    7 A"   21 A'   22 A'                 
  4.032   5.190   5.289   5.473   5.494   5.563   6.140   6.322
 23 A'    8 A"   24 A'    9 A"   10 A"   25 A'   26 A'   27 A'                 
  6.398   6.464   6.511   7.012   7.076  43.360
 11 A"   12 A"   28 A'   29 A'   30 A'   31 A'                                 
 --------------------------------------------------------------
 
          Ground-State Mulliken Net Atomic Charges

     Atom                 Charge (a.u.)
  ----------------------------------------
      1 O                    -0.656107
      2 H                     0.328054
      3 H                     0.328054
  ----------------------------------------
  Sum of atomic charges =     0.000000

 -----------------------------------------------------------------
                    Cartesian Multipole Moments
 -----------------------------------------------------------------
    Charge (ESU x 10^10)
                 0.0000
    Dipole Moment (Debye)
         X      -0.0000      Y       2.0876      Z       0.0000
       Tot       2.0876
    Quadrupole Moments (Debye-Ang)
        XX      -4.2540     XY       0.0000     YY      -6.2043
        XZ       0.0000     YZ       0.0000     ZZ      -7.5085
    Octopole Moments (Debye-Ang^2)
       XXX      -0.0000    XXY       1.3150    XYY       0.0000
       YYY       1.1837    XXZ       0.0000    XYZ      -0.0000
       YYZ       0.0000    XZZ       0.0000    YZZ       0.2946
       ZZZ       0.0000
    Hexadecapole Moments (Debye-Ang^3)
      XXXX      -5.9783   XXXY      -0.0000   XXYY      -1.8125
      XYYY       0.0000   YYYY      -6.9566   XXXZ       0.0000
      XXYZ       0.0000   XYYZ       0.0000   YYYZ       0.0000
      XXZZ      -2.3506   XYZZ      -0.0000   YYZZ      -2.2771
      XZZZ      -0.0000   YZZZ       0.0000   ZZZZ      -6.3845
 -----------------------------------------------------------------
Archival summary:
1\1\gadi-cpu-clx-2651.gadi.nci.org.au\OPT\ProcedureUnspecified\BasisUnspecified\12\pk8622\FriJun1901:08:302020FriJun1901:08:302020\0\\#,OPT,ProcedureUnspecified,BasisUnspecified,\\0,1\O\H,1,0.95752\H,1,0.95752,2,105.354\\\@

 Total job time:  7.78s(wall), 6.85s(cpu) 
 Fri Jun 19 01:08:30 2020

        *************************************************************
        *                                                           *
        *  Thank you very much for using Q-Chem.  Have a nice day.  *
        *                                                           *
        *************************************************************


 
User input: 2 of 2 
 
                  Welcome to Q-Chem
     A Quantum Leap Into The Future Of Chemistry


 Q-Chem 5.2 (devel), Q-Chem, Inc., Pleasanton, CA (2019)

 Yihan Shao,  Zhengting Gan,  E. Epifanovsky,  A. T. B. Gilbert,  M. Wormit,  
 J. Kussmann,  A. W. Lange,  A. Behn,  Jia Deng,  Xintian Feng,  D. Ghosh,  
 M. Goldey,  P. R. Horn,  L. D. Jacobson,  I. Kaliman,  T. Kus,  A. Landau,  
 Jie Liu,  E. I. Proynov,  R. M. Richard,  R. P. Steele,  E. J. Sundstrom,  
 H. L. Woodcock III,  P. M. Zimmerman,  D. Zuev,  B. Albrecht,  E. Alguire,  
 S. A. Baeppler,  D. Barton,  Z. Benda,  Y. A. Bernard,  E. J. Berquist,  
 K. B. Bravaya,  H. Burton,  D. Casanova,  Chun-Min Chang,  Yunqing Chen,  
 A. Chien,  K. D. Closser,  M. P. Coons,  S. Coriani,  S. Dasgupta,  
 A. L. Dempwolff,  M. Diedenhofen,  Hainam Do,  R. G. Edgar,  Po-Tung Fang,  
 S. Faraji,  S. Fatehi,  Qingguo Feng,  K. D. Fenk,  J. Fosso-Tande,  
 J. Gayvert,  Qinghui Ge,  A. Ghysels,  G. Gidofalvi,  J. Gomes,  
 J. Gonthier,  A. Gunina,  D. Hait,  M. W. D. Hanson-Heine,  
 P. H. P. Harbach,  A. W. Hauser,  M. F. Herbst,  J. E. Herr,  
 E. G. Hohenstein,  Z. C. Holden,  Kerwin Hui,  B. C. Huynh,  T.-C. Jagau,  
 Hyunjun Ji,  B. Kaduk,  K. Khistyaev,  Jaehoon Kim,  P. Klunzinger,  K. Koh,  
 D. Kosenkov,  L. Koulias,  T. Kowalczyk,  C. M. Krauter,  A. Kunitsa,  
 Ka Un Lao,  A. Laurent,  K. V. Lawler,  Joonho Lee,  D. Lefrancois,  
 S. Lehtola,  D. S. Levine,  Yi-Pei Li,  You-Sheng Lin,  Fenglai Liu,  
 E. Livshits,  A. Luenser,  P. Manohar,  E. Mansoor,  S. F. Manzer,  
 Shan-Ping Mao,  Yuezhi Mao,  N. Mardirossian,  A. V. Marenich,  
 T. Markovich,  L. A. Martinez-Martinez,  S. A. Maurer,  N. J. Mayhall,  
 S. C. McKenzie,  J.-M. Mewes,  P. Morgante,  A. F. Morrison,  
 J. W. Mullinax,  K. Nanda,  T. S. Nguyen-Beck,  R. Olivares-Amaya,  
 J. A. Parkhill,  Zheng Pei,  T. M. Perrine,  F. Plasser,  P. Pokhilko,  
 S. Prager,  A. Prociuk,  E. Ramos,  D. R. Rehn,  F. Rob,  M. Scheurer,  
 M. Schneider,  N. Sergueev,  S. M. Sharada,  S. Sharma,  D. W. Small,  
 T. Stauch,  T. Stein,  Yu-Chuan Su,  A. J. W. Thom,  A. Tkatchenko,  
 T. Tsuchimochi,  N. M. Tubman,  L. Vogt,  M. L. Vidal,  O. Vydrov,  
 M. A. Watson,  J. Wenzel,  M. de Wergifosse,  T. A. Wesolowski,  A. White,  
 J. Witte,  A. Yamada,  Jun Yang,  K. Yao,  S. Yeganeh,  S. R. Yost,  
 Zhi-Qiang You,  A. Zech,  Igor Ying Zhang,  Xing Zhang,  Yan Zhao,  
 Ying Zhu,  B. R. Brooks,  G. K. L. Chan,  C. J. Cramer,  M. S. Gordon,  
 W. J. Hehre,  A. Klamt,  M. W. Schmidt,  C. D. Sherrill,  D. G. Truhlar,  
 A. Aspuru-Guzik,  R. Baer,  A. T. Bell,  N. A. Besley,  Jeng-Da Chai,  
 A. E. DePrince, III,  R. A. DiStasio Jr.,  A. Dreuw,  B. D. Dunietz,  
 T. R. Furlani,  Chao-Ping Hsu,  Yousung Jung,  Jing Kong,  D. S. Lambrecht,  
 WanZhen Liang,  C. Ochsenfeld,  V. A. Rassolov,  L. V. Slipchenko,  
 J. E. Subotnik,  T. Van Voorhis,  J. M. Herbert,  A. I. Krylov,  
 P. M. W. Gill,  M. Head-Gordon

 Contributors to earlier versions of Q-Chem not listed above: 
 R. D. Adamson,  B. Austin,  J. Baker,  G. J. O. Beran,  K. Brandhorst,  
 S. T. Brown,  E. F. C. Byrd,  A. K. Chakraborty,  C.-L. Cheng,  
 Siu Hung Chien,  D. M. Chipman,  D. L. Crittenden,  H. Dachsel,  
 R. J. Doerksen,  A. D. Dutoi,  L. Fusti-Molnar,  W. A. Goddard III,  
 A. Golubeva-Zadorozhnaya,  S. R. Gwaltney,  G. Hawkins,  A. Heyden,  
 S. Hirata,  G. Kedziora,  F. J. Keil,  C. Kelley,  Jihan Kim,  R. A. King,  
 R. Z. Khaliullin,  P. P. Korambath,  W. Kurlancheek,  A. M. Lee,  M. S. Lee,  
 S. V. Levchenko,  Ching Yeh Lin,  D. Liotard,  R. C. Lochan,  I. Lotan,  
 P. E. Maslen,  N. Nair,  D. P. O'Neill,  D. Neuhauser,  E. Neuscamman,  
 C. M. Oana,  R. Olson,  B. Peters,  R. Peverati,  P. A. Pieniazek,  
 Y. M. Rhee,  J. Ritchie,  M. A. Rohrdanz,  E. Rosta,  N. J. Russ,  
 H. F. Schaefer III,  N. E. Schultz,  N. Shenvi,  A. C. Simmonett,  A. Sodt,  
 D. Stuck,  K. S. Thanthiriwatte,  V. Vanovschi,  Tao Wang,  A. Warshel,  
 C. F. Williams,  Q. Wu,  X. Xu,  W. Zhang

 Please cite Q-Chem as follows:
 Y. Shao et al., Mol. Phys. 113, 184-215 (2015)
 DOI: 10.1080/00268976.2014.952696

 Q-Chem 5.2.0 for Intel X86 EM64T Linux

 Parts of Q-Chem use Armadillo 8.300.2 (Tropical Shenanigans).
 http://arma.sourceforge.net/

 Q-Chem begins on Fri Jun 19 01:08:30 2020  

Host: gadi-cpu-clx-2651.gadi.nci.org.au
0

     Scratch files written to /jobfs/7377773.gadi-pbs/qchem87511//
NAlpha2: 10
NElect   10
Mult     1
The previous job contains 0 fragments, simply inherited here

Checking the input file for inconsistencies... 	...done.

--------------------------------------------------------------
User input:
--------------------------------------------------------------

$molecule
	READ
$end

$rem
	JOBTYPE	FREQ
	METHOD	wB97XD
	BASIS	def2-TZVP
	ANHAR	TRUE
	VCI	4
$end
--------------------------------------------------------------
 Atom   1: ( -0.0000000223, -0.0000000000,  0.1161104738)
         ->(  0.0000000000,  0.0000000000,  0.1161104738)
 Atom   3: (  0.7614480311,  0.0000000000, -0.4644418273)
         ->(  0.7614478524,  0.0000000000, -0.4644419635)
 ----------------------------------------------------------------
             Standard Nuclear Orientation (Angstroms)
    I     Atom           X                Y                Z
 ----------------------------------------------------------------
    1      O       0.0000000000     0.0000000000     0.1161104738
    2      H      -0.7614478524    -0.0000000000    -0.4644419635
    3      H       0.7614478524     0.0000000000    -0.4644419635
 ----------------------------------------------------------------
 Molecular Point Group                 C2v   NOp =  4
 Largest Abelian Subgroup              C2v   NOp =  4
 Nuclear Repulsion Energy =           9.18991895 hartrees
 There are        5 alpha and        5 beta electrons
 Requested basis set is def2-TZVP
 There are 19 shells and 43 basis functions

 Total QAlloc Memory Limit   2000 MB
 Mega-Array Size       188 MB
 MEM_STATIC part       192 MB

                       Distance Matrix (Angstroms)
             O (  1)   H (  2)
   H (  2)  0.957520
   H (  3)  0.957520  1.522896
 
 A cutoff of  1.0D-11 yielded    190 shell pairs
 There are      1002 function pairs (      1266 Cartesian)
 Smallest overlap matrix eigenvalue = 8.32E-03
 Guess from superposition of atomic densities
 Warning:  Energy on first SCF cycle will be non-variational
 SAD guess density has 10.000000 electrons

 -----------------------------------------------------------------------
  General SCF calculation program by
  Eric Jon Sundstrom, Paul Horn, Yuezhi Mao, Dmitri Zuev, Alec White,
  David Stuck, Shaama M.S., Shane Yost, Joonho Lee, David Small,
  Daniel Levine, Susi Lehtola, Hugh Burton, Evgeny Epifanovsky
 -----------------------------------------------------------------------
 Exchange:     0.2220 Hartree-Fock + 1.0000 wB97X-D + LR-HF
 Correlation:  1.0000 wB97X-D
 Using SG-2 standard quadrature grid
 Dispersion:   Grimme D
 A restricted SCF calculation will be
 performed using DIIS
 SCF converges when DIIS error is below 1.0e-08
 ---------------------------------------
  Cycle       Energy         DIIS error
 ---------------------------------------
    1     -76.3463886557      7.52e-02  
    2     -76.3758245860      1.89e-02  
    3     -76.3827353446      1.93e-02  
    4     -76.4361245750      8.17e-04  
    5     -76.4362208558      2.10e-04  
    6     -76.4362292654      2.19e-05  
    7     -76.4362293866      2.37e-06  
    8     -76.4362293889      2.90e-07  
    9     -76.4362293890      3.93e-08  
   10     -76.4362293890      6.74e-09  Convergence criterion met
 ---------------------------------------
 SCF time:   CPU 1.84s  wall 3.00s 
 SCF   energy in the final basis set =      -76.4362293890
 Total energy in the final basis set =      -76.4362293890
 
 --------------------------------------------------------------
             Orbital Energies (a.u.) and Symmetries
 --------------------------------------------------------------
 
 Alpha MOs, Restricted
 -- Occupied --                  
-19.245  -1.113  -0.622  -0.475  -0.401
  1 A1    2 A1    1 B1    3 A1    1 B2                                         
 -- Virtual --                   
  0.104   0.176   0.449   0.496   0.520   0.528   0.660   0.678
  4 A1    2 B1    3 B1    5 A1    2 B2    6 A1    4 B1    7 A1                 
  1.254   1.272   1.384   1.613   1.725   1.837   2.068   2.145
  8 A1    1 A2    3 B2    5 B1    9 A1    6 B1   10 A1    4 B2                 
  2.195   2.370   2.478   2.683   2.708   2.717   2.879   3.730
  2 A2    7 B1   11 A1    8 B1   12 A1    5 B2   13 A1   14 A1                 
  4.032   5.190   5.289   5.473   5.494   5.563   6.140   6.322
  9 B1    6 B2   15 A1    7 B2    3 A2   10 B1   11 B1   16 A1                 
  6.398   6.464   6.511   7.012   7.076  43.360
  8 B2    4 A2   17 A1   18 A1   12 B1   19 A1                                 
 
 Beta MOs, Restricted
 -- Occupied --                  
-19.245  -1.113  -0.622  -0.475  -0.401
  1 A1    2 A1    1 B1    3 A1    1 B2                                         
 -- Virtual --                   
  0.104   0.176   0.449   0.496   0.520   0.528   0.660   0.678
  4 A1    2 B1    3 B1    5 A1    2 B2    6 A1    4 B1    7 A1                 
  1.254   1.272   1.384   1.613   1.725   1.837   2.068   2.145
  8 A1    1 A2    3 B2    5 B1    9 A1    6 B1   10 A1    4 B2                 
  2.195   2.370   2.478   2.683   2.708   2.717   2.879   3.730
  2 A2    7 B1   11 A1    8 B1   12 A1    5 B2   13 A1   14 A1                 
  4.032   5.190   5.289   5.473   5.494   5.563   6.140   6.322
  9 B1    6 B2   15 A1    7 B2    3 A2   10 B1   11 B1   16 A1                 
  6.398   6.464   6.511   7.012   7.076  43.360
  8 B2    4 A2   17 A1   18 A1   12 B1   19 A1                                 
 --------------------------------------------------------------
 
          Ground-State Mulliken Net Atomic Charges

     Atom                 Charge (a.u.)
  ----------------------------------------
      1 O                    -0.656107
      2 H                     0.328054
      3 H                     0.328054
  ----------------------------------------
  Sum of atomic charges =     0.000000

 -----------------------------------------------------------------
                    Cartesian Multipole Moments
 -----------------------------------------------------------------
    Charge (ESU x 10^10)
                 0.0000
    Dipole Moment (Debye)
         X       0.0000      Y      -0.0000      Z      -2.0876
       Tot       2.0876
    Quadrupole Moments (Debye-Ang)
        XX      -4.2540     XY      -0.0000     YY      -7.5085
        XZ      -0.0000     YZ      -0.0000     ZZ      -6.2543
    Octopole Moments (Debye-Ang^2)
       XXX      -0.0000    XXY       0.0000    XYY       0.0000
       YYY       0.0000    XXZ      -1.3659    XYZ      -0.0000
       YYZ      -0.3844    XZZ       0.0000    YZZ       0.0000
       ZZZ      -1.4072
    Hexadecapole Moments (Debye-Ang^3)
      XXXX      -5.9783   XXXY      -0.0000   XXYY      -2.3506
      XYYY      -0.0000   YYYY      -6.3845   XXXZ      -0.0000
      XXYZ      -0.0000   XYYZ      -0.0000   YYYZ      -0.0000
      XXZZ      -1.8445   XYZZ      -0.0000   YYZZ      -2.2852
      XZZZ      -0.0000   YZZZ      -0.0000   ZZZZ      -7.0186
 -----------------------------------------------------------------
 Calculating MO derivatives via CPSCF
    1     0    12    0.0430319  
    2     0    12    0.0195597  
    3     0    12    0.0021103  
    4     0    12    0.0001939  
    5     0    12    0.0000214  
    6    11     1    0.0000023  
    7    12     0    0.0000001  Converged
 Time for AOints: 0.2 s (CPU) 0.2 s (wall)
 ------------------------------------------------------------------------------
                     AOints        : Timing summary (seconds)
 ------------------------------------------------------------------------------
     job step          cpu (% of tot)      sys (% of tot)     wall (% of tot)
 ------------------------------------------------------------------------------
  AOints            0.1977E+00 ( 4.9)   0.1000E-05 ( 5.9)   0.2183E+00 ( 5.1)
 ------------------------------------------------------------------------------
   Grand Totals     0.4056E+01          0.1700E-04          0.4292E+01
 ------------------------------------------------------------------------------
 Polarizability Matrix (a.u.)
            1           2           3
    1  -7.9424372  -0.0000000   0.0000000
    2  -0.0000000  -5.2121526  -0.0000000
    3   0.0000000  -0.0000000  -6.4663365
 Calculating analytic Hessian of the SCF energy
atom: 0 element: 8
atom: 1 element: 1
atom: 2 element: 1
 
 Direct stationary perturbation theory relativistic correction:
 
 rels  =       0.030152107792
 relv  =      -0.111905183251
 rel2e =       0.000000000000
 E_rel =      -0.081753075460
 
 Hessian of the SCF Energy
            1           2           3           4           5           6
    1   0.7086969   0.0000000   0.0000000  -0.3543484  -0.0000000  -0.2703492
    2   0.0000000   0.0002692   0.0000000  -0.0000000  -0.0001346  -0.0000000
    3   0.0000000   0.0000000   0.4589116  -0.2096120  -0.0000000  -0.2294558
    4  -0.3543484  -0.0000000  -0.2096120   0.3847161   0.0000000   0.2399806
    5  -0.0000000  -0.0001346  -0.0000000   0.0000000   0.0000636   0.0000000
    6  -0.2703492  -0.0000000  -0.2294558   0.2399806   0.0000000   0.2179061
    7  -0.3543484   0.0000000   0.2096120  -0.0303676   0.0000000   0.0303686
    8   0.0000000  -0.0001346   0.0000000   0.0000000   0.0000710  -0.0000000
    9   0.2703492  -0.0000000  -0.2294558  -0.0303686  -0.0000000   0.0115496
            7           8           9
    1  -0.3543484   0.0000000   0.2703492
    2   0.0000000  -0.0001346  -0.0000000
    3   0.2096120   0.0000000  -0.2294558
    4  -0.0303676   0.0000000  -0.0303686
    5   0.0000000   0.0000710  -0.0000000
    6   0.0303686  -0.0000000   0.0115496
    7   0.3847161  -0.0000000  -0.2399806
    8  -0.0000000   0.0000636   0.0000000
    9  -0.2399806   0.0000000   0.2179061
 **********************************************************************
 **                                                                  **
 **                       VIBRATIONAL ANALYSIS                       **
 **                       --------------------                       **
 **                                                                  **
 **        VIBRATIONAL FREQUENCIES (CM**-1) AND NORMAL MODES         **
 **     FORCE CONSTANTS (mDYN/ANGSTROM) AND REDUCED MASSES (AMU)     **
 **                  INFRARED INTENSITIES (KM/MOL)                   **
 **                                                                  **
 **********************************************************************
 

 Mode:                 1                      2                      3
 Frequency:      1626.53                3874.54                3983.79
 Force Cnst:      1.6889                 9.2375                10.1241
 Red. Mass:       1.0835                 1.0444                 1.0827
 IR Active:          YES                    YES                    YES
 IR Intens:       82.518                  6.287                 48.460
 Raman Active:       YES                    YES                    YES
               X      Y      Z        X      Y      Z        X      Y      Z
 O         -0.000 -0.000 -0.071   -0.000 -0.000  0.049   -0.071 -0.000 -0.000
 H         -0.424 -0.000  0.564   -0.587 -0.000 -0.392    0.561  0.000  0.428
 H          0.424  0.000  0.564    0.587 -0.000 -0.392    0.561  0.000 -0.428
 TransDip   0.000  0.000  0.291    0.000  0.000 -0.080    0.223  0.000  0.000

 STANDARD THERMODYNAMIC QUANTITIES AT   298.15 K  AND     1.00 ATM

   This Molecule has  0 Imaginary Frequencies
   Zero point vibrational energy:       13.559 kcal/mol

   Atom    1 Element O  Has Mass   15.99491
   Atom    2 Element H  Has Mass    1.00783
   Atom    3 Element H  Has Mass    1.00783
   Molecular Mass:    18.010570 amu
   Principal axes and moments of inertia in amu*Bohr^2:
                             1           2           3
    Eigenvalues --        2.15453     4.17345     6.32798
          X               1.00000     0.00000     0.00000
          Y               0.00000     0.00000     1.00000
          Z               0.00000     1.00000     0.00000
   Rotational Symmetry Number is   2
   The Molecule is an Asymmetric Top
   Translational Enthalpy:        0.889 kcal/mol
   Rotational Enthalpy:           0.889 kcal/mol
   Vibrational Enthalpy:         13.561 kcal/mol
   gas constant (RT):             0.592 kcal/mol
   Translational Entropy:        34.608  cal/mol.K
   Rotational Entropy:           10.441  cal/mol.K
   Vibrational Entropy:           0.007  cal/mol.K

   Total Enthalpy:               15.931 kcal/mol
   Total Entropy:                45.056  cal/mol.K
 =====================================================
 =====================================================
 = Starting finite difference calculation for ANHAR  =
 Finite diff step size:  9.99854e-02 a.u.

 Low frequencies less than 300 will be treated as rotation
 Anharmonic Force Field will start with mode 1

 Eng[0,0,0,0] = -7.64362293889758e+01


 You need 0.0000179 GB memory


 CoordNormalMode -1 , 0 , 0 , 0
 ----------------------------------------------------------------
             Standard Nuclear Orientation (Angstroms)
    I     Atom           X                Y                Z
 ----------------------------------------------------------------
    1      O       0.0000000000     0.0000000000     0.1198704885
    2      H      -0.7390330556    -0.0000000000    -0.4942788882
    3      H       0.7390330556     0.0000000000    -0.4942788882
 ----------------------------------------------------------------
 Nuclear Repulsion Energy =           9.16925828 hartrees
 There are        5 alpha and        5 beta electrons

                       Distance Matrix (Angstroms)
             O (  1)   H (  2)
   H (  2)  0.960911
   H (  3)  0.960911  1.478066
 
 Requested basis set is def2-TZVP
 There are 19 shells and 43 basis functions
 A cutoff of  1.0D-11 yielded    190 shell pairs
 There are      1002 function pairs (      1266 Cartesian)
 Smallest overlap matrix eigenvalue = 8.39E-03
 Guess MOs from SCF MO coefficient file

 -----------------------------------------------------------------------
  General SCF calculation program by
  Eric Jon Sundstrom, Paul Horn, Yuezhi Mao, Dmitri Zuev, Alec White,
  David Stuck, Shaama M.S., Shane Yost, Joonho Lee, David Small,
  Daniel Levine, Susi Lehtola, Hugh Burton, Evgeny Epifanovsky
 -----------------------------------------------------------------------
 Exchange:     0.2220 Hartree-Fock + 1.0000 wB97X-D + LR-HF
 Correlation:  1.0000 wB97X-D
 Using SG-2 standard quadrature grid
 Dispersion:   Grimme D
 A restricted SCF calculation will be
 performed using DIIS
 SCF converges when DIIS error is below 1.0e-08
 ---------------------------------------
  Cycle       Energy         DIIS error
 ---------------------------------------
    1     -76.4353848017      1.13e-03  
    2     -76.4356466307      2.24e-04  
    3     -76.4356551465      2.02e-04  
    4     -76.4356610947      2.42e-05  
    5     -76.4356612707      3.85e-06  
    6     -76.4356612775      6.85e-07  
    7     -76.4356612779      8.54e-08  
    8     -76.4356612779      7.95e-09  Convergence criterion met
 ---------------------------------------
 SCF time:   CPU 5.56s  wall 6.00s 
 SCF   energy in the final basis set =      -76.4356612779
 Total energy in the final basis set =      -76.4356612779
 
 --------------------------------------------------------------
 
                    Orbital Energies (a.u.)
 --------------------------------------------------------------
 
 Alpha MOs
 -- Occupied --
-19.2480  -1.1152  -0.6115  -0.4840  -0.4013
 -- Virtual --
  0.1025   0.1760   0.4400   0.5050   0.5200   0.5301   0.6595   0.6813
  1.2160   1.2820   1.3678   1.6139   1.7407   1.8604   2.0704   2.1666
  2.1704   2.3851   2.4225   2.6850   2.6946   2.7190   2.8703   3.7777
  3.9922   5.1840   5.3096   5.4605   5.5004   5.5005   6.1628   6.3001
  6.4088   6.4521   6.5488   6.9387   7.1247  43.3558
 --------------------------------------------------------------
 
          Ground-State Mulliken Net Atomic Charges

     Atom                 Charge (a.u.)
  ----------------------------------------
      1 O                    -0.642476
      2 H                     0.321238
      3 H                     0.321238
  ----------------------------------------
  Sum of atomic charges =     0.000000

 -----------------------------------------------------------------
                    Cartesian Multipole Moments
 -----------------------------------------------------------------
    Charge (ESU x 10^10)
                -0.0000
    Dipole Moment (Debye)
         X      -0.0000      Y      -0.0000      Z      -2.1615
       Tot       2.1615
    Quadrupole Moments (Debye-Ang)
        XX      -4.4611     XY       0.0000     YY      -7.5087
        XZ       0.0000     YZ       0.0000     ZZ      -6.1008
    Octopole Moments (Debye-Ang^2)
       XXX      -0.0000    XXY      -0.0000    XYY       0.0000
       YYY      -0.0000    XXZ      -1.3342    XYZ      -0.0000
       YYZ      -0.3744    XZZ      -0.0000    YZZ      -0.0000
       ZZZ      -1.4367
    Hexadecapole Moments (Debye-Ang^3)
      XXXX      -6.1629   XXXY       0.0000   XXYY      -2.3417
      XYYY       0.0000   YYYY      -6.3772   XXXZ       0.0000
      XXYZ       0.0000   XYYZ       0.0000   YYYZ       0.0000
      XXZZ      -1.8205   XYZZ       0.0000   YYZZ      -2.3010
      XZZZ       0.0000   YZZZ       0.0000   ZZZZ      -7.0447
 -----------------------------------------------------------------
 Eng[-1,0,0,0] = -7.64356612778625e+01
 points done 1/48
 CoordNormalMode -1 , -1 , 0 , 0
 ----------------------------------------------------------------
             Standard Nuclear Orientation (Angstroms)
    I     Atom           X                Y                Z
 ----------------------------------------------------------------
    1      O       0.0000000000     0.0000000000     0.1236305031
    2      H      -0.7166182588    -0.0000000000    -0.5241158130
    3      H       0.7166182588     0.0000000000    -0.5241158130
 ----------------------------------------------------------------
 Nuclear Repulsion Energy =           9.13422164 hartrees
 There are        5 alpha and        5 beta electrons

                       Distance Matrix (Angstroms)
             O (  1)   H (  2)
   H (  2)  0.965980
   H (  3)  0.965980  1.433237
 
 Requested basis set is def2-TZVP
 There are 19 shells and 43 basis functions
 A cutoff of  1.0D-11 yielded    190 shell pairs
 There are      1002 function pairs (      1266 Cartesian)
 Smallest overlap matrix eigenvalue = 8.53E-03
 Guess MOs from SCF MO coefficient file

 -----------------------------------------------------------------------
  General SCF calculation program by
  Eric Jon Sundstrom, Paul Horn, Yuezhi Mao, Dmitri Zuev, Alec White,
  David Stuck, Shaama M.S., Shane Yost, Joonho Lee, David Small,
  Daniel Levine, Susi Lehtola, Hugh Burton, Evgeny Epifanovsky
 -----------------------------------------------------------------------
 Exchange:     0.2220 Hartree-Fock + 1.0000 wB97X-D + LR-HF
 Correlation:  1.0000 wB97X-D
 Using SG-2 standard quadrature grid
 Dispersion:   Grimme D
 A restricted SCF calculation will be
 performed using DIIS
 SCF converges when DIIS error is below 1.0e-08
 ---------------------------------------
  Cycle       Energy         DIIS error
 ---------------------------------------
    1     -76.4336445506      1.16e-03  
    2     -76.4339231679      2.87e-04  
    3     -76.4339315450      2.77e-04  
    4     -76.4339427190      1.96e-05  
    5     -76.4339428836      3.32e-06  
    6     -76.4339428883      7.03e-07  
    7     -76.4339428887      8.82e-08  
    8     -76.4339428887      7.82e-09  Convergence criterion met
 ---------------------------------------
 SCF time:   CPU 5.57s  wall 6.00s 
 SCF   energy in the final basis set =      -76.4339428887
 Total energy in the final basis set =      -76.4339428887
 
 --------------------------------------------------------------
 
                    Orbital Energies (a.u.)
 --------------------------------------------------------------
 
 Alpha MOs
 -- Occupied --
-19.2507  -1.1167  -0.6003  -0.4928  -0.4020
 -- Virtual --
  0.1003   0.1752   0.4321   0.5103   0.5198   0.5310   0.6583   0.6843
  1.1803   1.2922   1.3507   1.6169   1.7541   1.8804   2.0619   2.1475
  2.1836   2.3714   2.4075   2.6780   2.6873   2.7194   2.8600   3.8260
  3.9355   5.1801   5.3321   5.4425   5.4501   5.5016   6.1773   6.2698
  6.4196   6.4391   6.5831   6.8681   7.1664  43.3541
 --------------------------------------------------------------
 
          Ground-State Mulliken Net Atomic Charges

     Atom                 Charge (a.u.)
  ----------------------------------------
      1 O                    -0.628675
      2 H                     0.314337
      3 H                     0.314337
  ----------------------------------------
  Sum of atomic charges =     0.000000

 -----------------------------------------------------------------
                    Cartesian Multipole Moments
 -----------------------------------------------------------------
    Charge (ESU x 10^10)
                -0.0000
    Dipole Moment (Debye)
         X      -0.0000      Y      -0.0000      Z      -2.2296
       Tot       2.2296
    Quadrupole Moments (Debye-Ang)
        XX      -4.6670     XY       0.0000     YY      -7.5128
        XZ       0.0000     YZ       0.0000     ZZ      -5.9458
    Octopole Moments (Debye-Ang^2)
       XXX      -0.0000    XXY      -0.0000    XYY       0.0000
       YYY      -0.0000    XXZ      -1.2918    XYZ      -0.0000
       YYZ      -0.3617    XZZ      -0.0000    YZZ      -0.0000
       ZZZ      -1.4639
    Hexadecapole Moments (Debye-Ang^3)
      XXXX      -6.3432   XXXY       0.0000   XXYY      -2.3368
      XYYY       0.0000   YYYY      -6.3755   XXXZ      -0.0000
      XXYZ       0.0000   XYYZ      -0.0000   YYYZ       0.0000
      XXZZ      -1.8093   XYZZ       0.0000   YYZZ      -2.3209
      XZZZ      -0.0000   YZZZ       0.0000   ZZZZ      -7.0792
 -----------------------------------------------------------------
 Eng[-1,-1,0,0] = -7.64339428886648e+01
 points done 2/48
 CoordNormalMode -2 , 0 , 0 , 0
 ----------------------------------------------------------------
             Standard Nuclear Orientation (Angstroms)
    I     Atom           X                Y                Z
 ----------------------------------------------------------------
    1      O       0.0000000000     0.0000000000     0.1134970370
    2      H      -0.7303635276    -0.0000000000    -0.4437035023
    3      H       0.7303635276     0.0000000000    -0.4437035023
 ----------------------------------------------------------------
 Nuclear Repulsion Energy =           9.57893359 hartrees
 There are        5 alpha and        5 beta electrons

                       Distance Matrix (Angstroms)
             O (  1)   H (  2)
   H (  2)  0.918642
   H (  3)  0.918642  1.460727
 
 Requested basis set is def2-TZVP
 There are 19 shells and 43 basis functions
 A cutoff of  1.0D-11 yielded    190 shell pairs
 There are      1002 function pairs (      1266 Cartesian)
 Smallest overlap matrix eigenvalue = 7.07E-03
 Guess MOs from SCF MO coefficient file

 -----------------------------------------------------------------------
  General SCF calculation program by
  Eric Jon Sundstrom, Paul Horn, Yuezhi Mao, Dmitri Zuev, Alec White,
  David Stuck, Shaama M.S., Shane Yost, Joonho Lee, David Small,
  Daniel Levine, Susi Lehtola, Hugh Burton, Evgeny Epifanovsky
 -----------------------------------------------------------------------
 Exchange:     0.2220 Hartree-Fock + 1.0000 wB97X-D + LR-HF
 Correlation:  1.0000 wB97X-D
 Using SG-2 standard quadrature grid
 Dispersion:   Grimme D
 A restricted SCF calculation will be
 performed using DIIS
 SCF converges when DIIS error is below 1.0e-08
 ---------------------------------------
  Cycle       Energy         DIIS error
 ---------------------------------------
    1     -76.4301859027      3.73e-03  
    2     -76.4325679299      1.58e-03  
    3     -76.4328074971      1.03e-03  
    4     -76.4329653488      7.01e-05  
    5     -76.4329677846      1.74e-05  
    6     -76.4329679405      2.50e-06  
    7     -76.4329679460      3.58e-07  
    8     -76.4329679461      2.98e-08  
    9     -76.4329679461      3.18e-09  Convergence criterion met
 ---------------------------------------
 SCF time:   CPU 6.26s  wall 6.00s 
 SCF   energy in the final basis set =      -76.4329679461
 Total energy in the final basis set =      -76.4329679461
 
 --------------------------------------------------------------
 
                    Orbital Energies (a.u.)
 --------------------------------------------------------------
 
 Alpha MOs
 -- Occupied --
-19.2386  -1.1310  -0.6376  -0.4788  -0.4040
 -- Virtual --
  0.1111   0.1836   0.4616   0.5038   0.5202   0.5437   0.6716   0.6810
  1.2582   1.2820   1.3907   1.5824   1.7124   1.8772   2.0388   2.1731
  2.2248   2.3606   2.4999   2.7270   2.7732   2.7907   2.9084   3.7788
  4.0979   5.1825   5.2985   5.5049   5.5283   5.6026   6.3119   6.4006
  6.4006   6.4708   6.5226   7.0831   7.1419  43.3378
 --------------------------------------------------------------
 
          Ground-State Mulliken Net Atomic Charges

     Atom                 Charge (a.u.)
  ----------------------------------------
      1 O                    -0.638084
      2 H                     0.319042
      3 H                     0.319042
  ----------------------------------------
  Sum of atomic charges =     0.000000

 -----------------------------------------------------------------
                    Cartesian Multipole Moments
 -----------------------------------------------------------------
    Charge (ESU x 10^10)
                -0.0000
    Dipole Moment (Debye)
         X      -0.0000      Y      -0.0000      Z      -2.0648
       Tot       2.0648
    Quadrupole Moments (Debye-Ang)
        XX      -4.3316     XY       0.0000     YY      -7.4181
        XZ       0.0000     YZ       0.0000     ZZ      -6.2396
    Octopole Moments (Debye-Ang^2)
       XXX      -0.0000    XXY      -0.0000    XYY       0.0000
       YYY      -0.0000    XXZ      -1.2778    XYZ      -0.0000
       YYZ      -0.4232    XZZ      -0.0000    YZZ      -0.0000
       ZZZ      -1.4833
    Hexadecapole Moments (Debye-Ang^3)
      XXXX      -5.6962   XXXY       0.0000   XXYY      -2.2426
      XYYY       0.0000   YYYY      -6.2622   XXXZ       0.0000
      XXYZ       0.0000   XYYZ      -0.0000   YYYZ       0.0000
      XXZZ      -1.8026   XYZZ       0.0000   YYZZ      -2.2157
      XZZZ      -0.0000   YZZZ       0.0000   ZZZZ      -6.7647
 -----------------------------------------------------------------
 Eng[-2,0,0,0] = -7.64329679460757e+01
 points done 3/48
 CoordNormalMode -2 , -2 , 0 , 0
 ----------------------------------------------------------------
             Standard Nuclear Orientation (Angstroms)
    I     Atom           X                Y                Z
 ----------------------------------------------------------------
    1      O       0.0000000000     0.0000000000     0.1108836002
    2      H      -0.6992792028    -0.0000000000    -0.4229650410
    3      H       0.6992792028     0.0000000000    -0.4229650410
 ----------------------------------------------------------------
 Nuclear Repulsion Energy =          10.00233476 hartrees
 There are        5 alpha and        5 beta electrons

                       Distance Matrix (Angstroms)
             O (  1)   H (  2)
   H (  2)  0.879765
   H (  3)  0.879765  1.398558
 
 Requested basis set is def2-TZVP
 There are 19 shells and 43 basis functions
 A cutoff of  1.0D-11 yielded    190 shell pairs
 There are      1002 function pairs (      1266 Cartesian)
 Smallest overlap matrix eigenvalue = 6.11E-03
 Guess MOs from SCF MO coefficient file

 -----------------------------------------------------------------------
  General SCF calculation program by
  Eric Jon Sundstrom, Paul Horn, Yuezhi Mao, Dmitri Zuev, Alec White,
  David Stuck, Shaama M.S., Shane Yost, Joonho Lee, David Small,
  Daniel Levine, Susi Lehtola, Hugh Burton, Evgeny Epifanovsky
 -----------------------------------------------------------------------
 Exchange:     0.2220 Hartree-Fock + 1.0000 wB97X-D + LR-HF
 Correlation:  1.0000 wB97X-D
 Using SG-2 standard quadrature grid
 Dispersion:   Grimme D
 A restricted SCF calculation will be
 performed using DIIS
 SCF converges when DIIS error is below 1.0e-08
 ---------------------------------------
  Cycle       Energy         DIIS error
 ---------------------------------------
    1     -76.4208972851      2.65e-03  
    2     -76.4216887321      1.33e-03  
    3     -76.4218765464      6.10e-04  
    4     -76.4219299944      5.26e-05  
    5     -76.4219309513      1.22e-05  
    6     -76.4219310484      1.31e-06  
    7     -76.4219310500      1.45e-07  
    8     -76.4219310500      1.45e-08  
    9     -76.4219310500      1.56e-09  Convergence criterion met
 ---------------------------------------
 SCF time:   CPU 6.42s  wall 7.00s 
 SCF   energy in the final basis set =      -76.4219310500
 Total energy in the final basis set =      -76.4219310500
 
 --------------------------------------------------------------
 
                    Orbital Energies (a.u.)
 --------------------------------------------------------------
 
 Alpha MOs
 -- Occupied --
-19.2313  -1.1506  -0.6544  -0.4827  -0.4078
 -- Virtual --
  0.1172   0.1895   0.4744   0.5047   0.5201   0.5661   0.6838   0.6845
  1.2638   1.2928   1.3981   1.5526   1.6952   1.9213   2.0208   2.2029
  2.2542   2.3542   2.5219   2.7353   2.8615   2.8744   2.9545   3.8395
  4.1573   5.1748   5.3101   5.5405   5.5647   5.6422   6.4012   6.4474
  6.4751   6.4818   6.5400   7.0932   7.2998  43.3112
 --------------------------------------------------------------
 
          Ground-State Mulliken Net Atomic Charges

     Atom                 Charge (a.u.)
  ----------------------------------------
      1 O                    -0.606525
      2 H                     0.303262
      3 H                     0.303262
  ----------------------------------------
  Sum of atomic charges =     0.000000

 -----------------------------------------------------------------
                    Cartesian Multipole Moments
 -----------------------------------------------------------------
    Charge (ESU x 10^10)
                 0.0000
    Dipole Moment (Debye)
         X      -0.0000      Y      -0.0000      Z      -2.0381
       Tot       2.0381
    Quadrupole Moments (Debye-Ang)
        XX      -4.4062     XY       0.0000     YY      -7.3245
        XZ       0.0000     YZ       0.0000     ZZ      -6.2198
    Octopole Moments (Debye-Ang^2)
       XXX      -0.0000    XXY      -0.0000    XYY       0.0000
       YYY      -0.0000    XXZ      -1.1949    XYZ      -0.0000
       YYZ      -0.4591    XZZ      -0.0000    YZZ      -0.0000
       ZZZ      -1.5533
    Hexadecapole Moments (Debye-Ang^3)
      XXXX      -5.4305   XXXY       0.0000   XXYY      -2.1408
      XYYY       0.0000   YYYY      -6.1378   XXXZ       0.0000
      XXYZ       0.0000   XYYZ      -0.0000   YYYZ       0.0000
      XXZZ      -1.7601   XYZZ       0.0000   YYZZ      -2.1481
      XZZZ      -0.0000   YZZZ       0.0000   ZZZZ      -6.5209
 -----------------------------------------------------------------
 Eng[-2,-2,0,0] = -7.64219310500140e+01
 points done 4/48
 CoordNormalMode -3 , 0 , 0 , 0
 ----------------------------------------------------------------
             Standard Nuclear Orientation (Angstroms)
    I     Atom           X                Y                Z
 ----------------------------------------------------------------
    1      O       0.0037399262     0.0000000000     0.1161104738
    2      H      -0.7911253691    -0.0000000000    -0.4870690608
    3      H       0.7317703358     0.0000000000    -0.4418148662
 ----------------------------------------------------------------
 Nuclear Repulsion Energy =           9.20542702 hartrees
 There are        5 alpha and        5 beta electrons

                       Distance Matrix (Angstroms)
             O (  1)   H (  2)
   H (  2)  0.997816
   H (  3)  0.917229  1.523568
 
 Requested basis set is def2-TZVP
 There are 19 shells and 43 basis functions
 A cutoff of  1.0D-11 yielded    190 shell pairs
 There are      1002 function pairs (      1266 Cartesian)
 Smallest overlap matrix eigenvalue = 7.94E-03
 Guess MOs from SCF MO coefficient file

 -----------------------------------------------------------------------
  General SCF calculation program by
  Eric Jon Sundstrom, Paul Horn, Yuezhi Mao, Dmitri Zuev, Alec White,
  David Stuck, Shaama M.S., Shane Yost, Joonho Lee, David Small,
  Daniel Levine, Susi Lehtola, Hugh Burton, Evgeny Epifanovsky
 -----------------------------------------------------------------------
 Exchange:     0.2220 Hartree-Fock + 1.0000 wB97X-D + LR-HF
 Correlation:  1.0000 wB97X-D
 Using SG-2 standard quadrature grid
 Dispersion:   Grimme D
 A restricted SCF calculation will be
 performed using DIIS
 SCF converges when DIIS error is below 1.0e-08
 ---------------------------------------
  Cycle       Energy         DIIS error
 ---------------------------------------
    1     -76.4282865476      5.46e-03  
    2     -76.4320657502      2.48e-03  
    3     -76.4326381737      1.45e-03  
    4     -76.4329516583      1.34e-04  
    5     -76.4329571886      2.85e-05  
    6     -76.4329577386      4.02e-06  
    7     -76.4329577509      7.83e-07  
    8     -76.4329577512      1.63e-07  
    9     -76.4329577512      2.05e-08  
   10     -76.4329577512      2.31e-09  Convergence criterion met
 ---------------------------------------
 SCF time:   CPU 6.96s  wall 7.00s 
 SCF   energy in the final basis set =      -76.4329577512
 Total energy in the final basis set =      -76.4329577512
 
 --------------------------------------------------------------
 
                    Orbital Energies (a.u.)
 --------------------------------------------------------------
 
 Alpha MOs
 -- Occupied --
-19.2451  -1.1144  -0.6216  -0.4751  -0.4007
 -- Virtual --
  0.1027   0.1767   0.4432   0.4986   0.5202   0.5313   0.6606   0.6797
  1.2545   1.2723   1.3856   1.6071   1.7221   1.8352   2.0719   2.1286
  2.2113   2.3750   2.4783   2.6261   2.7171   2.7676   2.8891   3.7228
  4.0420   5.1893   5.2869   5.4468   5.5231   5.5677   6.0679   6.3858
  6.3974   6.4643   6.5139   6.9900   7.1177  43.3553
 --------------------------------------------------------------
 
          Ground-State Mulliken Net Atomic Charges

     Atom                 Charge (a.u.)
  ----------------------------------------
      1 O                    -0.651090
      2 H                     0.331250
      3 H                     0.319839
  ----------------------------------------
  Sum of atomic charges =     0.000000

 -----------------------------------------------------------------
                    Cartesian Multipole Moments
 -----------------------------------------------------------------
    Charge (ESU x 10^10)
                 0.0000
    Dipole Moment (Debye)
         X      -0.0591      Y      -0.0000      Z      -2.0881
       Tot       2.0889
    Quadrupole Moments (Debye-Ang)
        XX      -4.2497     XY       0.0000     YY      -7.5068
        XZ       0.1075     YZ       0.0000     ZZ      -6.2516
    Octopole Moments (Debye-Ang^2)
       XXX      -0.0463    XXY      -0.0000    XYY       0.0550
       YYY      -0.0000    XXZ      -1.3709    XYZ      -0.0000
       YYZ      -0.3836    XZZ      -0.0333    YZZ      -0.0000
       ZZZ      -1.4076
    Hexadecapole Moments (Debye-Ang^3)
      XXXX      -5.9779   XXXY       0.0000   XXYY      -2.3527
      XYYY       0.0000   YYYY      -6.3831   XXXZ       0.0149
      XXYZ       0.0000   XYYZ      -0.0505   YYYZ       0.0000
      XXZZ      -1.8417   XYZZ       0.0000   YYZZ      -2.2862
      XZZZ      -0.0840   YZZZ       0.0000   ZZZZ      -7.0231
 -----------------------------------------------------------------
 Eng[-3,0,0,0] = -7.64329577511727e+01
 points done 5/48
 CoordNormalMode -3 , -3 , 0 , 0
 ----------------------------------------------------------------
             Standard Nuclear Orientation (Angstroms)
    I     Atom           X                Y                Z
 ----------------------------------------------------------------
    1      O       0.0074798524     0.0000000000     0.1161104738
    2      H      -0.8208028857    -0.0000000000    -0.5096961580
    3      H       0.7020928191    -0.0000000000    -0.4191877689
 ----------------------------------------------------------------
 Nuclear Repulsion Energy =           9.25228397 hartrees
 There are        5 alpha and        5 beta electrons

                       Distance Matrix (Angstroms)
             O (  1)   H (  2)
   H (  2)  1.038117
   H (  3)  0.876944  1.525583
 
 Requested basis set is def2-TZVP
 There are 19 shells and 43 basis functions
 A cutoff of  1.0D-11 yielded    190 shell pairs
 There are      1002 function pairs (      1266 Cartesian)
 Smallest overlap matrix eigenvalue = 7.23E-03
 Guess MOs from SCF MO coefficient file

 -----------------------------------------------------------------------
  General SCF calculation program by
  Eric Jon Sundstrom, Paul Horn, Yuezhi Mao, Dmitri Zuev, Alec White,
  David Stuck, Shaama M.S., Shane Yost, Joonho Lee, David Small,
  Daniel Levine, Susi Lehtola, Hugh Burton, Evgeny Epifanovsky
 -----------------------------------------------------------------------
 Exchange:     0.2220 Hartree-Fock + 1.0000 wB97X-D + LR-HF
 Correlation:  1.0000 wB97X-D
 Using SG-2 standard quadrature grid
 Dispersion:   Grimme D
 A restricted SCF calculation will be
 performed using DIIS
 SCF converges when DIIS error is below 1.0e-08
 ---------------------------------------
  Cycle       Energy         DIIS error
 ---------------------------------------
    1     -76.4220262792      2.37e-03  
    2     -76.4228790928      4.14e-04  
    3     -76.4229153729      1.96e-04  
    4     -76.4229211061      9.53e-05  
    5     -76.4229225816      1.65e-05  
    6     -76.4229226711      1.37e-06  
    7     -76.4229226722      2.00e-07  
    8     -76.4229226722      4.22e-08  
    9     -76.4229226722      7.03e-09  Convergence criterion met
 ---------------------------------------
 SCF time:   CPU 6.25s  wall 6.00s 
 SCF   energy in the final basis set =      -76.4229226722
 Total energy in the final basis set =      -76.4229226722
 
 --------------------------------------------------------------
 
                    Orbital Energies (a.u.)
 --------------------------------------------------------------
 
 Alpha MOs
 -- Occupied --
-19.2440  -1.1185  -0.6214  -0.4750  -0.4009
 -- Virtual --
  0.0986   0.1772   0.4310   0.5016   0.5202   0.5396   0.6619   0.6844
  1.2561   1.2717   1.3900   1.5939   1.7145   1.8306   2.0804   2.1001
  2.2407   2.3870   2.4770   2.5731   2.7164   2.8151   2.9334   3.7024
  4.0707   5.1884   5.2807   5.4154   5.5636   5.5807   5.9548   6.3942
  6.4576   6.4636   6.5332   6.9581   7.2090  43.3433
 --------------------------------------------------------------
 
          Ground-State Mulliken Net Atomic Charges

     Atom                 Charge (a.u.)
  ----------------------------------------
      1 O                    -0.636285
      2 H                     0.331368
      3 H                     0.304917
  ----------------------------------------
  Sum of atomic charges =     0.000000

 -----------------------------------------------------------------
                    Cartesian Multipole Moments
 -----------------------------------------------------------------
    Charge (ESU x 10^10)
                -0.0000
    Dipole Moment (Debye)
         X      -0.1190      Y      -0.0000      Z      -2.0896
       Tot       2.0930
    Quadrupole Moments (Debye-Ang)
        XX      -4.2368     XY       0.0000     YY      -7.5018
        XZ       0.2152     YZ       0.0000     ZZ      -6.2436
    Octopole Moments (Debye-Ang^2)
       XXX      -0.0948    XXY      -0.0000    XYY       0.1098
       YYY      -0.0000    XXZ      -1.3859    XYZ      -0.0000
       YYZ      -0.3814    XZZ      -0.0677    YZZ      -0.0000
       ZZZ      -1.4087
    Hexadecapole Moments (Debye-Ang^3)
      XXXX      -5.9769   XXXY       0.0000   XXYY      -2.3589
      XYYY       0.0000   YYYY      -6.3790   XXXZ       0.0317
      XXYZ       0.0000   XYYZ      -0.1010   YYYZ       0.0000
      XXZZ      -1.8333   XYZZ       0.0000   YYZZ      -2.2892
      XZZZ      -0.1672   YZZZ       0.0000   ZZZZ      -7.0368
 -----------------------------------------------------------------
 Eng[-3,-3,0,0] = -7.64229226722068e+01
 points done 6/48
 CoordNormalMode 1 , 0 , 0 , 0
 ----------------------------------------------------------------
             Standard Nuclear Orientation (Angstroms)
    I     Atom           X                Y                Z
 ----------------------------------------------------------------
    1      O      -0.0000000000    -0.0000000000     0.1123504592
    2      H      -0.7838626493    -0.0000000000    -0.4346050387
    3      H       0.7838626493     0.0000000000    -0.4346050387
 ----------------------------------------------------------------
 Nuclear Repulsion Energy =           9.19565806 hartrees
 There are        5 alpha and        5 beta electrons

                       Distance Matrix (Angstroms)
             O (  1)   H (  2)
   H (  2)  0.955825
   H (  3)  0.955825  1.567725
 
 Requested basis set is def2-TZVP
[...]
 ----------------------------------------------------------------
    1      O      -0.0037399262    -0.0000000000     0.1187239107
    2      H      -0.7628546606    -0.0000000000    -0.4625533274
    3      H       0.8222096939     0.0000000000    -0.5078075220
 ----------------------------------------------------------------
 Nuclear Repulsion Energy =           8.84502697 hartrees
 There are        5 alpha and        5 beta electrons

                       Distance Matrix (Angstroms)
             O (  1)   H (  2)
   H (  2)  0.956106
   H (  3)  1.036694  1.585710
 
 Requested basis set is def2-TZVP
 There are 19 shells and 43 basis functions
 A cutoff of  1.0D-11 yielded    190 shell pairs
 There are      1002 function pairs (      1266 Cartesian)
 Smallest overlap matrix eigenvalue = 9.29E-03
 Guess MOs from SCF MO coefficient file

 -----------------------------------------------------------------------
  General SCF calculation program by
  Eric Jon Sundstrom, Paul Horn, Yuezhi Mao, Dmitri Zuev, Alec White,
  David Stuck, Shaama M.S., Shane Yost, Joonho Lee, David Small,
  Daniel Levine, Susi Lehtola, Hugh Burton, Evgeny Epifanovsky
 -----------------------------------------------------------------------
 Exchange:     0.2220 Hartree-Fock + 1.0000 wB97X-D + LR-HF
 Correlation:  1.0000 wB97X-D
 Using SG-2 standard quadrature grid
 Dispersion:   Grimme D
 A restricted SCF calculation will be
 performed using DIIS
 SCF converges when DIIS error is below 1.0e-08
 ---------------------------------------
  Cycle       Energy         DIIS error
 ---------------------------------------
    1     -76.4284773419      3.92e-03  
    2     -76.4306532861      1.48e-03  
    3     -76.4308262259      1.10e-03  
    4     -76.4310067242      1.03e-04  
    5     -76.4310099913      2.23e-05  
    6     -76.4310102838      3.10e-06  
    7     -76.4310102915      6.19e-07  
    8     -76.4310102917      1.36e-07  
    9     -76.4310102918      2.01e-08  
   10     -76.4310102918      2.36e-09  Convergence criterion met
 ---------------------------------------
 SCF time:   CPU 7.00s  wall 7.00s 
 SCF   energy in the final basis set =      -76.4310102918
 Total energy in the final basis set =      -76.4310102918
 
 --------------------------------------------------------------
 
                    Orbital Energies (a.u.)
 --------------------------------------------------------------
 
 Alpha MOs
 -- Occupied --
-19.2515  -1.0980  -0.6067  -0.4716  -0.3975
 -- Virtual --
  0.0946   0.1687   0.4299   0.4850   0.5202   0.5242   0.6509   0.6764
  1.2513   1.2643   1.3794   1.6314   1.7227   1.7991   2.1005   2.1011
  2.1816   2.3870   2.4590   2.5605   2.6875   2.7071   2.8605   3.6788
  3.9709   5.1957   5.2792   5.4195   5.4894   5.5287   5.9324   6.2840
  6.3937   6.4568   6.5006   6.9127   7.0783  43.3660
 --------------------------------------------------------------
 
          Ground-State Mulliken Net Atomic Charges

     Atom                 Charge (a.u.)
  ----------------------------------------
      1 O                    -0.660444
      2 H                     0.328638
      3 H                     0.331806
  ----------------------------------------
  Sum of atomic charges =     0.000000

 -----------------------------------------------------------------
                    Cartesian Multipole Moments
 -----------------------------------------------------------------
    Charge (ESU x 10^10)
                 0.0000
    Dipole Moment (Debye)
         X       0.0552      Y      -0.0000      Z      -2.1070
       Tot       2.1077
    Quadrupole Moments (Debye-Ang)
        XX      -4.1702     XY      -0.0000     YY      -7.5940
        XZ      -0.1101     YZ       0.0000     ZZ      -6.2616
    Octopole Moments (Debye-Ang^2)
       XXX       0.0504    XXY       0.0000    XYY      -0.0582
       YYY       0.0000    XXZ      -1.4645    XYZ       0.0000
       YYZ      -0.3420    XZZ       0.0362    YZZ       0.0000
       ZZZ      -1.3258
    Hexadecapole Moments (Debye-Ang^3)
      XXXX      -6.2774   XXXY      -0.0000   XXYY      -2.4675
      XYYY      -0.0000   YYYY      -6.5030   XXXZ      -0.0204
      XXYZ      -0.0000   XYYZ       0.0546   YYYZ       0.0000
      XXZZ      -1.8825   XYZZ      -0.0000   YYZZ      -2.3580
      XZZZ       0.0888   YZZZ       0.0000   ZZZZ      -7.2877
 -----------------------------------------------------------------
 Eng[3,2,0,0] = -7.64310102917603e+01
 points done 47/48
 CoordNormalMode 3 , 3 , 2 , 0
 ----------------------------------------------------------------
             Standard Nuclear Orientation (Angstroms)
    I     Atom           X                Y                Z
 ----------------------------------------------------------------
    1      O      -0.0074798524    -0.0000000000     0.1187239107
    2      H      -0.7331771439    -0.0000000000    -0.4399262302
    3      H       0.8518872106     0.0000000000    -0.5304346193
 ----------------------------------------------------------------
 Nuclear Repulsion Energy =           8.88658402 hartrees
 There are        5 alpha and        5 beta electrons

                       Distance Matrix (Angstroms)
             O (  1)   H (  2)
   H (  2)  0.915820
   H (  3)  1.076995  1.587646
 
 Requested basis set is def2-TZVP
 There are 19 shells and 43 basis functions
 A cutoff of  1.0D-11 yielded    190 shell pairs
 There are      1002 function pairs (      1266 Cartesian)
 Smallest overlap matrix eigenvalue = 8.28E-03
 Guess MOs from SCF MO coefficient file

 -----------------------------------------------------------------------
  General SCF calculation program by
  Eric Jon Sundstrom, Paul Horn, Yuezhi Mao, Dmitri Zuev, Alec White,
  David Stuck, Shaama M.S., Shane Yost, Joonho Lee, David Small,
  Daniel Levine, Susi Lehtola, Hugh Burton, Evgeny Epifanovsky
 -----------------------------------------------------------------------
 Exchange:     0.2220 Hartree-Fock + 1.0000 wB97X-D + LR-HF
 Correlation:  1.0000 wB97X-D
 Using SG-2 standard quadrature grid
 Dispersion:   Grimme D
 A restricted SCF calculation will be
 performed using DIIS
 SCF converges when DIIS error is below 1.0e-08
 ---------------------------------------
  Cycle       Energy         DIIS error
 ---------------------------------------
    1     -76.4225086702      2.15e-03  
    2     -76.4232667757      3.85e-04  
    3     -76.4233006844      1.95e-04  
    4     -76.4233063900      9.60e-05  
    5     -76.4233079239      1.60e-05  
    6     -76.4233080130      1.36e-06  
    7     -76.4233080141      1.97e-07  
    8     -76.4233080141      4.18e-08  
    9     -76.4233080141      7.22e-09  Convergence criterion met
 ---------------------------------------
 SCF time:   CPU 6.27s  wall 7.00s 
 SCF   energy in the final basis set =      -76.4233080141
 Total energy in the final basis set =      -76.4233080141
 
 --------------------------------------------------------------
 
                    Orbital Energies (a.u.)
 --------------------------------------------------------------
 
 Alpha MOs
 -- Occupied --
-19.2504  -1.1017  -0.6067  -0.4714  -0.3978
 -- Virtual --
  0.0900   0.1699   0.4177   0.4938   0.5202   0.5288   0.6528   0.6794
  1.2532   1.2645   1.3832   1.6164   1.7090   1.7938   2.0721   2.0975
  2.2108   2.3957   2.4615   2.5194   2.7073   2.7522   2.8819   3.6549
  3.9983   5.1947   5.2736   5.3909   5.5266   5.5400   5.8428   6.3878
  6.3901   6.4574   6.5040   6.9060   7.1272  43.3495
 --------------------------------------------------------------
 
          Ground-State Mulliken Net Atomic Charges

     Atom                 Charge (a.u.)
  ----------------------------------------
      1 O                    -0.650527
      2 H                     0.320359
      3 H                     0.330168
  ----------------------------------------
  Sum of atomic charges =     0.000000

 -----------------------------------------------------------------
                    Cartesian Multipole Moments
 -----------------------------------------------------------------
    Charge (ESU x 10^10)
                -0.0000
    Dipole Moment (Debye)
         X       0.1112      Y      -0.0000      Z      -2.1087
       Tot       2.1116
    Quadrupole Moments (Debye-Ang)
        XX      -4.1578     XY       0.0000     YY      -7.5891
        XZ      -0.2204     YZ      -0.0000     ZZ      -6.2539
    Octopole Moments (Debye-Ang^2)
       XXX       0.1029    XXY      -0.0000    XYY      -0.1161
       YYY      -0.0000    XXZ      -1.4800    XYZ      -0.0000
       YYZ      -0.3398    XZZ       0.0734    YZZ      -0.0000
       ZZZ      -1.3275
    Hexadecapole Moments (Debye-Ang^3)
      XXXX      -6.2760   XXXY       0.0000   XXYY      -2.4741
      XYYY       0.0000   YYYY      -6.4991   XXXZ      -0.0425
      XXYZ       0.0000   XYYZ       0.1093   YYYZ       0.0000
      XXZZ      -1.8734   XYZZ       0.0000   YYZZ      -2.3612
      XZZZ       0.1767   YZZZ       0.0000   ZZZZ      -7.3019
 -----------------------------------------------------------------
 Eng[3,3,2,0] = -7.64233080141371e+01
 points done 48/48
 derivatives time:              CPU  315.66 s  wall  325.51 s
 ======================================================================
 ======================================================================
      ANHARMONIC CUBIC & QUARTIC FORCE FIELD (CM**-1)                  
 ______________________________________________________________________
 Eta[1,1,1]=-264.8168501217,
 Eta[1,1,1,1]=-47.3318099077,
 Eta[1,1,2]=367.3022139668,
 Eta[1,1,1,2]=157.0105454029,
 Eta[1,1,2,2]=-315.9085435950,
 Eta[1,1,3]=-0.0000003205,
 Eta[1,1,1,3]=0.0000000698,
 Eta[1,1,3,3]=-373.8285501040,
 Eta[2,2,2]=-1820.0064185352,
 Eta[2,2,2,2]=745.0787061166,
 Eta[2,2,1]=60.7241229802,
 Eta[2,2,2,1]=-56.4994387608,
 Eta[2,2,3]=-0.0000000388,
 Eta[2,2,2,3]=-0.0000002475,
 Eta[2,2,3,3]=748.4451427813,
 Eta[3,3,3]=-0.0000000364,
 Eta[3,3,3,3]=753.4389512144,
 Eta[3,3,1]=256.7970609640,
 Eta[3,3,3,1]=0.0000001522,
 Eta[3,3,2]=-1823.5790502842,
 Eta[3,3,3,2]=-0.0000002448,
 ======================================================================
 VCI[1] |  1  0  0 >    1616.24 
 VCI[1] |  0  1  0 >    4185.35 
 VCI[1] |  0  0  1 >    4206.62 
 -----------------------------------------------------------
 VCI[1] construnction time:  CPU    0.00 s  wall    0.00 s
 -----------------------------------------------------------
 VCI[2] |  1  0  0 >    1565.23 
 VCI[2] |  2  0  0 >    3136.51 
 VCI[2] |  0  1  0 >    3788.84 
 VCI[2] |  0  0  1 >    3872.74 
 VCI[2] |  1  1  0 >    5612.81 
 VCI[2] |  1  0  1 >    5654.88 
 VCI[2] |  0  0  2 >    8301.52 
 VCI[2] |  0  1  1 >    8747.33 
 VCI[2] |  0  2  0 >    8756.78 
 -----------------------------------------------------------
 VCI[2] construnction time:  CPU    0.00 s  wall    0.00 s
 -----------------------------------------------------------
 VCI[3] |  1  0  0 >    1581.22 
 VCI[3] |  2  0  0 >    3118.71 
 VCI[3] |  0  1  0 >    3791.66 
 VCI[3] |  0  0  1 >    3872.75 
 VCI[3] |  3  0  0 >    4668.11 
 VCI[3] |  1  1  0 >    5345.62 
 VCI[3] |  1  0  1 >    5400.29 
 VCI[3] |  2  1  0 >    7036.93 
 VCI[3] |  2  0  1 >    7096.61 
 VCI[3] |  0  2  0 >    7643.13 
 VCI[3] |  0  1  1 >    7728.14 
 VCI[3] |  0  0  2 >    7779.17 
 VCI[3] |  1  0  2 >    9671.67 
 VCI[3] |  1  1  1 >   10075.38 
 VCI[3] |  1  2  0 >   10080.77 
 VCI[3] |  0  0  3 >   12645.78 
 VCI[3] |  0  3  0 >   13061.92 
 VCI[3] |  0  2  1 >   13923.05 
 VCI[3] |  0  1  2 >   13952.08 
 -----------------------------------------------------------
 VCI[3] construnction time:  CPU    0.00 s  wall    0.00 s
 -----------------------------------------------------------
 VCI[4] |  1  0  0 >    1555.20 
 VCI[4] |  2  0  0 >    3106.86 
 VCI[4] |  0  1  0 >    3749.68 
 VCI[4] |  0  0  1 >    3831.49 
 VCI[4] |  3  0  0 >    4620.68 
 VCI[4] |  1  1  0 >    5321.29 
 VCI[4] |  1  0  1 >    5374.73 
 VCI[4] |  4  0  0 >    6183.09 
 VCI[4] |  2  1  0 >    6866.68 
 VCI[4] |  2  0  1 >    6887.26 
 VCI[4] |  0  2  0 >    7562.75 
 VCI[4] |  0  1  1 >    7631.75 
 VCI[4] |  0  0  2 >    7707.30 
 VCI[4] |  3  1  0 >    8435.26 
 VCI[4] |  3  0  1 >    8502.27 
 VCI[4] |  1  2  0 >    9144.68 
 VCI[4] |  1  1  1 >    9200.19 
 VCI[4] |  1  0  2 >    9232.22 
 VCI[4] |  2  2  0 >   10978.27 
 VCI[4] |  2  1  1 >   11321.87 
 VCI[4] |  2  0  2 >   11326.06 
 VCI[4] |  0  3  0 >   11602.49 
 VCI[4] |  0  0  3 >   11674.46 
 VCI[4] |  0  2  1 >   11780.07 
 VCI[4] |  0  1  2 >   11802.80 
 VCI[4] |  1  0  3 >   13927.12 
 VCI[4] |  1  3  0 >   14242.47 
 VCI[4] |  1  2  1 >   15081.38 
 VCI[4] |  1  1  2 >   15104.83 
 VCI[4] |  0  0  4 >   17019.32 
 VCI[4] |  0  1  3 >   17973.91 
 VCI[4] |  0  4  0 >   18319.33 
 VCI[4] |  0  3  1 >   19782.31 
 VCI[4] |  0  2  2 >   19798.96 
 -----------------------------------------------------------
 VCI[4] construnction time:  CPU    0.00 s  wall    0.00 s
 -----------------------------------------------------------
 VCI time:                    CPU    0.00 s  wall    0.00 s
 ----------------------------------------------------------------
             Standard Nuclear Orientation (Angstroms)
    I     Atom           X                Y                Z
 ----------------------------------------------------------------
    1      O       0.0000000000     0.0000000000     0.1161104738
    2      H      -0.7614478524    -0.0000000000    -0.4644419635
    3      H       0.7614478524     0.0000000000    -0.4644419635
 ----------------------------------------------------------------
 Nuclear Repulsion Energy =           9.18991927 hartrees
 There are        5 alpha and        5 beta electrons

 = Finishing finite difference calculation for ANHAR =
 =====================================================
 =====================================================
 Requested basis set is def2-TZVP
 There are 19 shells and 43 basis functions
 **********************************************************************
 **                                                                  **
 **                       VIBRATIONAL ANALYSIS                       **
 **                       --------------------                       **
 **                                                                  **
 **        VIBRATIONAL FREQUENCIES (CM**-1) AND NORMAL MODES         **
 **     FORCE CONSTANTS (mDYN/ANGSTROM) AND REDUCED MASSES (AMU)     **
 **                  INFRARED INTENSITIES (KM/MOL)                   **
 **                                                                  **
 **********************************************************************
 

 Mode:                 1                      2                      3
 Frequency:      1626.53                3874.54                3983.79
 Force Cnst:      1.6889                 9.2375                10.1241
 Red. Mass:       1.0835                 1.0444                 1.0827
 IR Active:          YES                    YES                    YES
 IR Intens:       82.518                  6.287                 48.460
 Raman Active:       YES                    YES                    YES
               X      Y      Z        X      Y      Z        X      Y      Z
 O         -0.000 -0.000 -0.071   -0.000 -0.000  0.049   -0.071 -0.000 -0.000
 H         -0.424 -0.000  0.564   -0.587 -0.000 -0.392    0.561  0.000  0.428
 H          0.424  0.000  0.564    0.587 -0.000 -0.392    0.561  0.000 -0.428
 TransDip   0.000  0.000  0.291    0.000  0.000 -0.080    0.223  0.000  0.000

 ======================================================================
                     VIBRATIONAL ANHARMONIC ANALYSIS                   
                     -------------------------------                   
 WARNING! Low frequency modes less than  300 are treated as rotation
 No anharmonic shift applied, please see IGNORE_LOW_FREQ for more details.
 WARNING! THESE RESULTS ARE CALCULATED WTIHOUT Eta_ijk AND Eta_ijkl
                                                                       
 TOSH[ 1]  1563.98    VPT2[ 1]  1562.84
 TOSH[ 2]  3757.55    VPT2[ 2]  3701.60
 TOSH[ 3]  3782.69    VPT2[ 3]  3782.69

 VCI[ 1]mode[ 1]=  1.00 quanta * 1616.24
 VCI[ 1]mode[ 2]=  0.99 quanta * 4185.35
 VCI[ 1]mode[ 3]=  1.00 quanta * 4206.62

 VCI[ 2]mode[ 1]=  0.99 quanta * 1565.23
 VCI[ 2]mode[ 2]=  0.94 quanta * 3788.84
 VCI[ 2]mode[ 3]=  0.96 quanta * 3872.74

 VCI[ 3]mode[ 1]=  0.99 quanta * 1581.22
 VCI[ 3]mode[ 2]=  0.93 quanta * 3791.66
 VCI[ 3]mode[ 3]=  0.96 quanta * 3872.75

 VCI[ 4]mode[ 1]=  0.99 quanta * 1555.20
 VCI[ 4]mode[ 2]=  0.93 quanta * 3749.68
 VCI[ 4]mode[ 3]=  0.95 quanta * 3831.49

 ======================================================================

 STANDARD THERMODYNAMIC QUANTITIES AT   298.15 K  AND     1.00 ATM

   This Molecule has  0 Imaginary Frequencies
   Zero point vibrational energy:       13.559 kcal/mol

   Atom    1 Element O  Has Mass   15.99491
   Atom    2 Element H  Has Mass    1.00783
   Atom    3 Element H  Has Mass    1.00783
   Molecular Mass:    18.010570 amu
   Principal axes and moments of inertia in amu*Bohr^2:
                             1           2           3
    Eigenvalues --        2.15453     4.17345     6.32798
          X               1.00000     0.00000     0.00000
          Y               0.00000     0.00000     1.00000
          Z               0.00000     1.00000     0.00000
   Rotational Symmetry Number is   2
   The Molecule is an Asymmetric Top
   Translational Enthalpy:        0.889 kcal/mol
   Rotational Enthalpy:           0.889 kcal/mol
   Vibrational Enthalpy:         13.561 kcal/mol
   gas constant (RT):             0.592 kcal/mol
   Translational Entropy:        34.608  cal/mol.K
   Rotational Entropy:           10.441  cal/mol.K
   Vibrational Entropy:           0.007  cal/mol.K

   Total Enthalpy:               15.931 kcal/mol
   Total Entropy:                45.056  cal/mol.K

 ======================================================================

 STANDARD THERMODYNAMIC QUANTITIES FOR ANHARMONIC VIBRATION -- TOSH

   Zero point vibrational energy:       13.015 kcal/mol

   Vibrational Enthalpy:         13.017 kcal/mol
   Vibrational Entropy:           0.009  cal/mol.K

   Total Enthalpy:               15.387 kcal/mol
   Total Entropy:                45.058  cal/mol.K

 ======================================================================

 STANDARD THERMODYNAMIC QUANTITIES FOR ANHARMONIC VIBRATION -- VPT2

   Zero point vibrational energy:       12.934 kcal/mol

   Vibrational Enthalpy:         12.936 kcal/mol
   Vibrational Entropy:           0.009  cal/mol.K

   Total Enthalpy:               15.306 kcal/mol
   Total Entropy:                45.058  cal/mol.K

 ======================================================================

 STANDARD THERMODYNAMIC QUANTITIES FOR ANHARMONIC VIBRATION -- VCI 4

   Zero point vibrational energy:       13.061 kcal/mol

   Vibrational Enthalpy:         13.064 kcal/mol
   Vibrational Entropy:           0.009  cal/mol.K

   Total Enthalpy:               15.433 kcal/mol
   Total Entropy:                45.058  cal/mol.K

 ======================================================================
 
Archival summary:
1\1\gadi-cpu-clx-2651.gadi.nci.org.au\FREQ\ProcedureUnspecified\BasisUnspecified\12\pk8622\FriJun1901:14:082020FriJun1901:14:082020\0\\#,FREQ,ProcedureUnspecified,BasisUnspecified,\\0,1\O\H,1,0.95752\H,1,0.95752,2,105.354\\\@

 Total job time:  337.24s(wall), 326.83s(cpu) 
 Fri Jun 19 01:14:08 2020

        *************************************************************
        *                                                           *
        *  Thank you very much for using Q-Chem.  Have a nice day.  *
        *                                                           *
        *************************************************************


