
 Primary working directories    : /jobfs/8021009.gadi-pbs/molpro.k4MuW3k0Ox
 Secondary working directories  : /jobfs/8021009.gadi-pbs/molpro.k4MuW3k0Ox
 Wavefunction directory         : /home/561/pk8622/wfu/
 Main file repository           : /jobfs/8021009.gadi-pbs/molpro.k4MuW3k0Ox/

 id        : anu

 Nodes                            nprocs
 gadi-cpu-clx-1000.gadi.nci.org.au    1

 Using customized tuning parameters: mindgm=1; mindgv=20; mindgc=4; mindgr=1; noblas=0; minvec=7
 default implementation of scratch files=df  


 Variables initialized (934), CPU time= 0.01 sec
 ***,Geometry optimization + Harmonic vibrational analysis for H2O
 
 memory,40,m
 basis=def2-TZVP
 
 symmetry,nosym
 orient,planexz
 angstrom
 
 geometry={
 O
 H, 1, 0.96900
 H, 1, 0.96900, 2, 103.97800
 }
 mass,iso
 
 ks,B3LYP
 optg
 
 ks,B3LYP
 frequencies
 Commands  initialized (763), CPU time= 0.01 sec, 617 directives.
 Default parameters read. Elapsed time= 0.09 sec

 Checking input...
 Passed
1


                                         ***  PROGRAM SYSTEM MOLPRO  ***
                                       Copyright, TTI GmbH Stuttgart, 2015
                                    Version 2019.2 linked Nov 21 2019 12:21:21


 **********************************************************************************************************************************
 LABEL *   Geometry optimization + Harmonic vibrational analysis for H2O                 
  64 bit serial version                                                                  DATE: 05-Jul-20          TIME: 18:09:55  
 **********************************************************************************************************************************

 SHA1:             8dbd9ae1082e4ce945b0f27595c9eb2d4aa09004
 **********************************************************************************************************************************

 Variable memory set to   40000000 words,  buffer space 

 SETTING BASIS          =    DEF2-TZVP
 ZSYMEL=NOSYM
 ZPLANE=XZ
 ZUNIT=ANG
 


 Using masses of most abundant isotopes

 **********************************************************************************************************************************


 Recomputing integrals since basis changed


 Using spherical harmonics

 Library entry O      S def2-TZVP            selected for orbital group  1
 Library entry O      P def2-TZVP            selected for orbital group  1
 Library entry O      D def2-TZVP            selected for orbital group  1
 Library entry O      F def2-TZVP            selected for orbital group  1
 Library entry H      S def2-TZVP            selected for orbital group  2
 Library entry H      P def2-TZVP            selected for orbital group  2


 PROGRAM * SEWARD (Integral evaluation for generally contracted gaussian basis sets)     Author: Roland Lindh, 1990

 Geometry written to block  1 of record 700

 Orientation using atomic masses  
 Molecule type: Asymmetric top
 Rotational constants:     792.8710730    278.8617538    430.1506016 GHz

 Point group  C1  



 ATOMIC COORDINATES

 NR  ATOM    CHARGE       X              Y              Z

   1  O       8.00    0.000000000    0.000000000   -0.126199963
   2  H       1.00    1.442745183    0.000000000    1.001442240
   3  H       1.00   -1.442745183    0.000000000    1.001442240

 Bond lengths in Bohr (Angstrom)

 1-2  1.831144615  1-3  1.831144615
     ( 0.969000000)     ( 0.969000000)

 Bond angles

  2-1-3  103.97800000

 NUCLEAR CHARGE:                   10
 NUMBER OF PRIMITIVE AOS:          67
 NUMBER OF SYMMETRY AOS:           62
 NUMBER OF CONTRACTIONS:           43   (   43A   )
 NUMBER OF CORE ORBITALS:           1   (    1A   )
 NUMBER OF VALENCE ORBITALS:        6   (    6A   )


 NUCLEAR REPULSION ENERGY    9.08426575

 EXTRA SYMMETRY OF AOS IN SYMMETRY 1:   1 1 1 1 1 1 2 1 1 2   1 1 2 1 1 2 1 1 2 1   2 1 1 2 1 2 1 1 2 2   1 1 1 1 1 2 1 1 1 1
                                        1 2 1

 Eigenvalues of metric

         1 0.873E-02 0.142E-01 0.145E-01 0.562E-01 0.944E-01 0.105E+00 0.111E+00 0.179E+00


 Contracted 2-electron integrals neglected if value below      1.0D-11
 AO integral compression algorithm  1   Integral accuracy      1.0D-11

     1.573 MB (compressed) written to integral file ( 31.2%)


 NUMBER OF SORTED TWO-ELECTRON INTEGRALS:     447931.     BUFFER LENGTH:  32768
 NUMBER OF SEGMENTS:   1  SEGMENT LENGTH:     447931      RECORD LENGTH: 524288

 Memory used in sort:       1.00 MW

 SORT1 READ      537817. AND WROTE      182395. INTEGRALS IN      1 RECORDS. CPU TIME:     0.01 SEC, REAL TIME:     0.01 SEC
 SORT2 READ      182395. AND WROTE      447931. INTEGRALS IN      6 RECORDS. CPU TIME:     0.03 SEC, REAL TIME:     0.03 SEC

 FILE SIZES:   FILE 1:    31.6 MBYTE,  FILE 4:     4.2 MBYTE,   TOTAL:     35.8 MBYTE

 OPERATOR DM      FOR CENTER  0  COORDINATES:    0.000000    0.000000    0.000000


 **********************************************************************************************************************************
 DATASETS  * FILE   NREC   LENGTH (MB)   RECORD NAMES
              1      19       31.05       500      610      700      900      950      970     1000      129      960     1100   
                                          VAR    BASINP    GEOM    SYMINP    ZMAT    AOBASIS   BASIS     P2S    ABASIS      S 
                                         1400     1410     1200     1210     1080     1600     1650     1300     1700   
                                           T        V       H0       H01     AOSYM     SMH    MOLCAS    ERIS     OPER   

 PROGRAMS   *        TOTAL       INT
 CPU TIMES  *         0.94      0.34
 REAL TIME  *         1.12 SEC
 DISK USED  *        36.11 MB
 **********************************************************************************************************************************

 Density functional group B3LYP=B88+DIRAC+LYP+VWN5
 Functional: B88(Automatically generated (new) B88)                            Gradient terms: 1
 Functional: DIRAC(Automatically generated (new) DIRAC)                        Gradient terms: 0
 Functional: LYP(Automatically generated (new) LYP)                            Gradient terms: 1
 Functional: VWN5(Automatically generated (new) VWN5)                          Gradient terms: 0
 Use libxcgrid:  F
 Use grid at  1800.2
 

 Exact exchange will be calculated, factor:  0.2000

 Functional: B88                       Factor:  0.7200
 Functional: DIRAC                     Factor:  0.0800
 Functional: LYP                       Factor:  0.8100
 Functional: VWN5                      Factor:  0.1900
 
 Generated new metagrid on record  1800.2 with target accuracy 1.0D-06 and 12928 points in CPU time    0.1
 Computed new grid on record 1800.1 in CPU time    0.1
   37991 words reserved for DFT integration

 PROGRAM * RKS-SCF (Restricted closed shell Kohn-Sham)     Authors: W. Meyer, H.-J. Werner, P.J. Knowles, 1993

 NUMBER OF ELECTRONS:       5+    5-    SPACE SYMMETRY=1    SPIN SYMMETRY: Singlet 
 CONVERGENCE THRESHOLDS:    1.00E-06 (Density)    1.00E-06 (Energy)
 MAX. NUMBER OF ITERATIONS:       60
 INTERPOLATION TYPE:            DIIS
 INTERPOLATION STEPS:              2 (START)      1 (STEP)
 LEVEL SHIFTS:                  0.00 (CLOSED)  0.00 (OPEN) 



 Use fine grid record 1800.2 for energy threshold  1.0D-06
 Orbital guess generated from atomic densities. Full valence occupancy:    5

 Molecular orbital dump at record        2100.2

 Initial occupancy:   5

 ITERATION    DDIFF          GRAD             ENERGY        2-EL.EN.            DIPOLE MOMENTS         DIIS   ORB.
    1      0.000D+00      0.000D+00       -76.35038153     94.157638    0.00000   -0.00000    1.18157    0    start
    2      0.000D+00      0.235D-01       -76.22767034     82.802162   -0.00000    0.00000    0.28640    1    diag
    3      0.241D-01      0.384D-01       -76.42575432     89.900105   -0.00000    0.00000    0.81228    2    diag
    4      0.154D-01      0.710D-03       -76.42582392     89.802643   -0.00000   -0.00000    0.82293    3    diag
    5      0.282D-03      0.187D-03       -76.42582780     89.816446    0.00000   -0.00000    0.82013    4    diag
    6      0.476D-04      0.285D-04       -76.42582791     89.821902   -0.00000    0.00000    0.82048    5    diag
    7      0.120D-04      0.737D-06       -76.42582791     89.821781   -0.00000    0.00000    0.82048    6    diag
    8      0.326D-06      0.416D-07       -76.42582791     89.821777   -0.00000   -0.00000    0.82048    0    orth

 Final occupancy:   5

 !RKS STATE  1.1 Energy               -76.425827910954
 Nuclear energy                         9.08426575
 One-electron energy                 -122.90818565
 Two-electron energy                   44.91088826
 SCF exchange energy                   -8.92234192     Factor= 0.2000
 Density functional                    -7.51279627     B88=-8.97592836 DIRAC=-8.10722510 LYP=-0.34023732 VWN5=-0.66293480
 Virial quotient                       -1.00371646
 !RKS STATE  1.1 Dipole moment         -0.00000000    -0.00000000     0.82048216
 Dipole moment /Debye                  -0.00000000    -0.00000000     2.08532106

 Orbital energies:

         1.1          2.1          3.1          4.1          5.1          6.1          7.1
    -19.125447    -1.008856    -0.527326    -0.388999    -0.312742     0.015212     0.090603


 HOMO      5.1    -0.312742 =      -8.5101eV
 LUMO      6.1     0.015212 =       0.4139eV
 LUMO-HOMO         0.327954 =       8.9241eV


 **********************************************************************************************************************************
 DATASETS  * FILE   NREC   LENGTH (MB)   RECORD NAMES
              1      20       31.47       500      610      700      900      950      970     1000      129      960     1100   
                                          VAR    BASINP    GEOM    SYMINP    ZMAT    AOBASIS   BASIS     P2S    ABASIS      S 
                                         1400     1410     1200     1210     1080     1600     1650     1300     1700     1800   
                                           T        V       H0       H01     AOSYM     SMH    MOLCAS    ERIS     OPER     GRID   

              2       5        2.80       700     1000      520     1800     2100   
                                         GEOM     BASIS   MCVARS    GRID      RKS  

 PROGRAMS   *        TOTAL    KS-SCF       INT
 CPU TIMES  *         1.60      0.66      0.34
 REAL TIME  *         1.81 SEC
 DISK USED  *        36.11 MB
 **********************************************************************************************************************************


 PROGRAM * OPT (Geometry optimization)     Authors: F. Eckert and H.-J. Werner


 BFGS update of hessian

 *** Long output written to logfile /scratch/on41/pk8622/Test_Calcs/Water/molpro_B3LYP_def2-TZVP.log ***


 Geometry optimization using default procedure for command KS-SCF

 Geometry written to block  1 of record 701

 Making model hessian for cartesian coordinates

 Entering Rational Function Geometry Optimization

 ITER.   ENERGY(OLD)    ENERGY(NEW)      DE          GRADMAX     GRADNORM    GRADRMS     STEPMAX     STEPLEN     STEPRMS   CPU-time
   1   -76.42582791   -76.42590451    -0.00007660  0.01150533  0.01158783  0.00386261  0.00890785  0.01090596  0.00629656      1.79
 Freezing grid
   2   -76.42590451   -76.42591771    -0.00001320  0.00407365  0.00415847  0.00138616  0.00602891  0.00791571  0.00457013      3.62
   3   -76.42591771   -76.42591777    -0.00000006  0.00014266  0.00017331  0.00005777  0.00067121  0.00067175  0.00038784      5.24

 END OF GEOMETRY OPTIMIZATION.

 Current geometry (xyz format, in Angstrom)

    3
 KS-SCF000/DEF2-TZVP  ENERGY=-76.42591777
 O          0.0000000000        0.0000000000       -0.0587498697
 H          0.7651254269        0.0000000000        0.5259242740
 H         -0.7651254269        0.0000000000        0.5259242740

 **********************************************************************************************************************************

 Geometry written to block  1 of record 701


 **********************************************************************************************************************************
 DATASETS  * FILE   NREC   LENGTH (MB)   RECORD NAMES
              1      21       31.66       500      610      700      900      701      950      970     1000      129      960   
                                          VAR    BASINP    GEOM    SYMINP    GEOM     ZMAT    AOBASIS   BASIS     P2S    ABASIS    
                                         1100     1400     1410     1200     1210     1080     1600     1650     1300     1700   
                                           S        T        V       H0       H01     AOSYM     SMH    MOLCAS    ERIS     OPER   
                                         1800   
                                         GRID   

              2       6        2.86       700     1000      520     1800     2100      701   
                                         GEOM     BASIS   MCVARS    GRID      RKS     GEOM   

 PROGRAMS   *        TOTAL      OPTG    KS-SCF       INT
 CPU TIMES  *         6.89      5.24      0.66      0.34
 REAL TIME  *         7.44 SEC
 DISK USED  *        38.94 MB
 **********************************************************************************************************************************


 Recomputing integrals since geometry changed


 PROGRAM * SEWARD (Integral evaluation for generally contracted gaussian basis sets)     Author: Roland Lindh, 1990

 Geometry written to block  1 of record 701

 Orientation using atomic masses  
 Molecule type: Asymmetric top
 Rotational constants:     825.8852417    282.0321820    428.2888780 GHz

 Point group  C1  



 ATOMIC COORDINATES

 NR  ATOM    CHARGE       X              Y              Z

   1  O       8.00    0.000000000    0.000000000   -0.123651862
   2  H       1.00    1.445877508    0.000000000    0.981222141
   3  H       1.00   -1.445877508    0.000000000    0.981222141

 Bond lengths in Bohr (Angstrom)

 1-2  1.819700066  1-3  1.819700066
     ( 0.962943806)     ( 0.962943806)

 Bond angles

  2-1-3  105.22915658

 NUCLEAR CHARGE:                   10
 NUMBER OF PRIMITIVE AOS:          67
 NUMBER OF SYMMETRY AOS:           62
 NUMBER OF CONTRACTIONS:           43   (   43A   )
 NUMBER OF CORE ORBITALS:           1   (    1A   )
 NUMBER OF VALENCE ORBITALS:        6   (    6A   )


 NUCLEAR REPULSION ENERGY    9.13846857

 EXTRA SYMMETRY OF AOS IN SYMMETRY 1:   1 1 1 1 1 1 2 1 1 2   1 1 2 1 1 2 1 1 2 1   2 1 1 2 1 2 1 1 2 2   1 1 1 1 1 2 1 1 1 1
                                        1 2 1

 Eigenvalues of metric

         1 0.851E-02 0.141E-01 0.142E-01 0.553E-01 0.936E-01 0.104E+00 0.110E+00 0.179E+00


 Contracted 2-electron integrals neglected if value below      1.0D-11
 AO integral compression algorithm  1   Integral accuracy      1.0D-11

     1.573 MB (compressed) written to integral file ( 31.3%)


 NUMBER OF SORTED TWO-ELECTRON INTEGRALS:     447931.     BUFFER LENGTH:  32768
 NUMBER OF SEGMENTS:   1  SEGMENT LENGTH:     447931      RECORD LENGTH: 524288

 Memory used in sort:       1.00 MW

 SORT1 READ      537817. AND WROTE      182395. INTEGRALS IN      1 RECORDS. CPU TIME:     0.00 SEC, REAL TIME:     0.01 SEC
 SORT2 READ      182395. AND WROTE      447931. INTEGRALS IN      6 RECORDS. CPU TIME:     0.03 SEC, REAL TIME:     0.03 SEC

 FILE SIZES:   FILE 1:    31.8 MBYTE,  FILE 4:     4.2 MBYTE,   TOTAL:     36.0 MBYTE

 OPERATOR DM      FOR CENTER  0  COORDINATES:    0.000000    0.000000    0.000000


 **********************************************************************************************************************************
 DATASETS  * FILE   NREC   LENGTH (MB)   RECORD NAMES
              1      20       31.27       500      610      700      900      701      950      970     1000      129      960   
                                          VAR    BASINP    GEOM    SYMINP    GEOM     ZMAT    AOBASIS   BASIS     P2S    ABASIS    
                                         1100     1400     1410     1200     1210     1080     1600     1650     1300     1700   
                                           S        T        V       H0       H01     AOSYM     SMH    MOLCAS    ERIS     OPER   

              2       6        2.86       700     1000      520     1800     2100      701   
                                         GEOM     BASIS   MCVARS    GRID      RKS     GEOM   

 PROGRAMS   *        TOTAL       INT      OPTG    KS-SCF       INT
 CPU TIMES  *         7.21      0.27      5.24      0.66      0.34
 REAL TIME  *         7.83 SEC
 DISK USED  *        38.94 MB
 **********************************************************************************************************************************

 Density functional group B3LYP=B88+DIRAC+LYP+VWN5
 Functional: B88(Automatically generated (new) B88)                            Gradient terms: 1
 Functional: DIRAC(Automatically generated (new) DIRAC)                        Gradient terms: 0
 Functional: LYP(Automatically generated (new) LYP)                            Gradient terms: 1
 Functional: VWN5(Automatically generated (new) VWN5)                          Gradient terms: 0
 Use libxcgrid:  F
 Use grid at  1800.2
 

 Exact exchange will be calculated, factor:  0.2000

 Functional: B88                       Factor:  0.7200
 Functional: DIRAC                     Factor:  0.0800
 Functional: LYP                       Factor:  0.8100
 Functional: VWN5                      Factor:  0.1900
 
 Generated new metagrid on record  1800.2 with target accuracy 1.0D-06 and 12080 points in CPU time    0.1
 Computed new grid on record 1800.1 in CPU time    0.1
   37991 words reserved for DFT integration

 PROGRAM * RKS-SCF (Restricted closed shell Kohn-Sham)     Authors: W. Meyer, H.-J. Werner, P.J. Knowles, 1993

 NUMBER OF ELECTRONS:       5+    5-    SPACE SYMMETRY=1    SPIN SYMMETRY: Singlet 
 CONVERGENCE THRESHOLDS:    1.00E-07 (Density)    1.00E-06 (Energy)
 MAX. NUMBER OF ITERATIONS:       60
 INTERPOLATION TYPE:            DIIS
 INTERPOLATION STEPS:              2 (START)      1 (STEP)
 LEVEL SHIFTS:                  0.00 (CLOSED)  0.00 (OPEN) 



 Use fine grid record 1800.2 for energy threshold  1.0D-06
 Molecular orbitals read from record     2100.2  Type=RKS/CANONICAL (state 1.1)

 Molecular orbital dump at record        2101.2

 ITERATION    DDIFF          GRAD             ENERGY        2-EL.EN.            DIPOLE MOMENTS         DIIS   ORB.
    1      0.000D+00      0.000D+00       -76.42591773     89.920678    0.00000   -0.00000    0.81177    0    start
    2      0.000D+00      0.828D-08       -76.42591773     89.920682   -0.00000    0.00000    0.81177    0    orth

 Final occupancy:   5

 !RKS STATE  1.1 Energy               -76.425917731857
 Nuclear energy                         9.13846857
 One-electron energy                 -123.00746986
 Two-electron energy                   44.96034094
 SCF exchange energy                   -8.92867645     Factor= 0.2000
 Density functional                    -7.51725739     B88=-8.98122902 DIRAC=-8.11250369 LYP=-0.34044485 VWN5=-0.66322036
 Virial quotient                       -1.00346546
 !RKS STATE  1.1 Dipole moment         -0.00000000     0.00000000     0.81176650
 Dipole moment /Debye                  -0.00000000     0.00000000     2.06316949

 Orbital energies:

         1.1          2.1          3.1          4.1          5.1          6.1          7.1
    -19.123961    -1.010565    -0.531851    -0.387155    -0.312954     0.016483     0.091792


 HOMO      5.1    -0.312954 =      -8.5159eV
 LUMO      6.1     0.016483 =       0.4485eV
 LUMO-HOMO         0.329438 =       8.9645eV


 **********************************************************************************************************************************
 DATASETS  * FILE   NREC   LENGTH (MB)   RECORD NAMES
              1      21       31.66       500      610      700      900      701      950      970     1000      129      960   
                                          VAR    BASINP    GEOM    SYMINP    GEOM     ZMAT    AOBASIS   BASIS     P2S    ABASIS    
                                         1100     1400     1410     1200     1210     1080     1600     1650     1300     1700   
                                           S        T        V       H0       H01     AOSYM     SMH    MOLCAS    ERIS     OPER   
                                         1800   
                                         GRID   

              2       7        5.58       700     1000      520     1800     2100      701     2101   
                                         GEOM     BASIS   MCVARS    GRID      RKS     GEOM      RKS  

 PROGRAMS   *        TOTAL    KS-SCF       INT      OPTG    KS-SCF       INT
 CPU TIMES  *         7.46      0.25      0.27      5.24      0.66      0.34
 REAL TIME  *         8.09 SEC
 DISK USED  *        38.94 MB
 **********************************************************************************************************************************


 PROGRAM * HESSIAN

 Computing numerical hessian using default procedure for command KS-SCF

 Symmetry elements for unique displacements: X  Y  

 Using no symmetry in wavefunction calculations

 Running default procedure: KS-SCF001
 

 Recomputing wavefunction at reference geometry

 Numerically approximating hessian using central gradient differences

 Task list generated. Total number of displacements:      9

    5 tasks completed, CPU=8s Elapsed=9s

 Numerical KS-SCF001 hessian completed. CPU-time:    15.87 sec, Elapsed:    16.26 sec

 KS-SCF hessian saved to record  5300.2

 PROGRAM * FREQUENCIES (Calculation of harmonic vibrational spectra for KS-SCF)


 Permanent Dipole Moment [debye]
   1-  3    0.000000    0.000000    2.063169

 Dipole Moment Norm    2.0631695 [debye]

 Dipole Moment Derivatives [debye/ang]
                   1             2             3             4             5             6             7             8
         1    -2.3096868     0.0000000     0.0000000     1.1548353     0.0000000    -0.4659419     1.1548353     0.0000000
         2     0.0000000    -3.5289404     0.0000000     0.0000000     1.7644871     0.0000000     0.0000000     1.7644871
         3     0.0000000     0.0000000    -1.7593035    -0.3772195     0.0000000     0.8797375     0.3772195     0.0000000
                   9
         1     0.4659419
         2     0.0000000
         3     0.8797375

 Projecting out rotations and translations

   Low Vibration      Wavenumber
        Nr             [1/cm] 
        1                0.00
        2                0.00
        3                0.00
        4                0.00
        5                0.00
        6                0.00

     Vibration        Wavenumber
        Nr             [1/cm] 
        1             1616.06
        2             3783.08
        3             3888.21

 FREQUENCIES * CALCULATION OF NORMAL MODES FOR KS-SCF


 Atomic Coordinates

  Nr  Atom  Charge       X              Y              Z

   1   O     8.00    0.000000000    0.000000000   -0.123651862
   2   H     1.00    1.445877508    0.000000000    0.981222141
   3   H     1.00   -1.445877508    0.000000000    0.981222141

 Gradient norm at reference geometry: 0.17332D-03

 Normal Modes

                              1 A1        2 A1        3 B2 
 Wavenumbers [cm-1]         1616.06     3783.08     3888.21
 Intensities [km/mol]         80.63        4.39       43.74
 Intensities [relative]      100.00        5.44       54.24
           OX1             -0.00000     0.00000    -0.06788
           OY1              0.00000    -0.00000     0.00000
           OZ1             -0.06841    -0.04814    -0.00000
           HX2             -0.40535     0.57603     0.53864
           HY2              0.00000     0.00000     0.00000
           HZ2              0.54284     0.38200     0.41161
           HX3              0.40535    -0.57603     0.53864
           HY3              0.00000    -0.00000     0.00000
           HZ3              0.54284     0.38200    -0.41161


 Normal Modes of low/zero frequencies

                                  1           2           3           4           5
 Wavenumbers [cm-1]            0.00        0.00        0.00        0.00        0.00
 Intensities [km/mol]          0.00        0.00        0.00        0.00        0.00
 Intensities [relative]        0.00        0.00        0.00        0.00        0.00
           OX1             -0.02916    -0.00128    -0.00302    -0.00029     0.00000
           OY1              0.24752    -0.00127     0.01801    -0.00095    -0.00000
           OZ1             -0.00810    -0.10214     0.11342     0.17934    -0.00000
           HX2              0.00739     0.07078    -0.33738     0.25391     0.00000
           HY2             -0.02320     0.88201     0.38277     0.25922     0.00000
           HZ2             -0.05592    -0.19644     0.55097    -0.15333    -0.00000
           HX3              0.00739     0.07078    -0.33738     0.25391     0.00000
           HY3             -0.00000    -0.00000     0.00000     0.00000     0.99611
           HZ3              0.03973    -0.00784    -0.32414     0.51200     0.00000

                                  6
 Wavenumbers [cm-1]            0.00
 Intensities [km/mol]          0.00
 Intensities [relative]        0.00
           OX1              0.23885
           OY1              0.03043
           OZ1              0.00012
           HX2              0.15040
           HY2              0.00703
           HZ2              0.11587
           HX3              0.15040
           HY3              0.00000
           HZ3             -0.11563


 Frequencies dumped to record   5400.2

 Zero point energy:  0.02115813 [H]     4643.67 [1/CM]       55.55 [KJ/MOL]

 Recomputing wavefunction at initial geometry


 **********************************************************************************************************************************
 DATASETS  * FILE   NREC   LENGTH (MB)   RECORD NAMES
              1      21       31.66       500      610      700      900      701      950      970     1000      129      960   
                                          VAR    BASINP    GEOM    SYMINP    GEOM     ZMAT    AOBASIS   BASIS     P2S    ABASIS    
                                         1100     1400     1410     1200     1210     1080     1600     1650     1300     1700   
                                           S        T        V       H0       H01     AOSYM     SMH    MOLCAS    ERIS     OPER   
                                         1800   
                                         GRID   

              2      10        5.63       700     1000      520     1800     2100      701     2101     5300     5450     5400   
                                         GEOM     BASIS   MCVARS    GRID      RKS     GEOM      RKS     HESS     NMOD     FREQ   

 PROGRAMS   *        TOTAL      FREQ    KS-SCF       INT      OPTG    KS-SCF       INT
 CPU TIMES  *        23.83     16.32      0.25      0.27      5.24      0.66      0.34
 REAL TIME  *        25.42 SEC
 DISK USED  *        42.24 MB
 **********************************************************************************************************************************

 B3LYP/DEF2-TZVP energy=    -76.425917771450

          KS-SCF    OPTG(KS-SCF)          KS-SCF
    -76.42591773    -76.42591777    -76.42582791
 **********************************************************************************************************************************
 Molpro calculation terminated
