
 Primary working directories    : /jobfs/8423768.gadi-pbs/molpro.Cf2plamdgB
 Secondary working directories  : /jobfs/8423768.gadi-pbs/molpro.Cf2plamdgB
 Wavefunction directory         : /home/561/pk8622/wfu/
 Main file repository           : /jobfs/8423768.gadi-pbs/molpro.Cf2plamdgB/

 id        : anu

 Nodes                            nprocs
 gadi-cpu-clx-0988.gadi.nci.org.au    1

 Using customized tuning parameters: mindgm=1; mindgv=20; mindgc=4; mindgr=1; noblas=0; minvec=7
 default implementation of scratch files=df  


 Variables initialized (934), CPU time= 0.01 sec
 ***,H2O HARMONIC FREQUENCIES
 
 memory,m,40
 basis=STO-3G
 
 symmetry,nosym
 orient,planexz
 angstrom
 
 geometry={
 O
 H, 1, 0.96900
 H, 1, 0.96900, 2, 103.97800
 }
 
 mass,iso
 
 hf
 optg,GRADIENT=0.000002,STEP=0.000006,ENERGY=0.000000001,GRMS=0.000001,SRMS=0.000004
 
 frequencies,symm=auto
 Commands  initialized (763), CPU time= 0.01 sec, 617 directives.
 Default parameters read. Elapsed time= 0.12 sec

 Checking input...
 Passed
1


                                         ***  PROGRAM SYSTEM MOLPRO  ***
                                       Copyright, TTI GmbH Stuttgart, 2015
                                    Version 2019.2 linked Nov 21 2019 12:21:21


 **********************************************************************************************************************************
 LABEL *   H2O HARMONIC FREQUENCIES                                                      
  64 bit serial version                                                                  DATE: 13-Jul-20          TIME: 11:15:43  
 **********************************************************************************************************************************

 SHA1:             8dbd9ae1082e4ce945b0f27595c9eb2d4aa09004
 **********************************************************************************************************************************

 Variable memory set to    8000000 words,  buffer space 

 SETTING BASIS          =    STO-3G
 ZSYMEL=NOSYM
 ZPLANE=XZ
 ZUNIT=ANG
 


 Using masses of most abundant isotopes

 **********************************************************************************************************************************


 Recomputing integrals since basis changed


 Using spherical harmonics

 Library entry O      S STO-3G               selected for orbital group  1
 Library entry O      P STO-3G               selected for orbital group  1
 Library entry H      S STO-3G               selected for orbital group  2


 PROGRAM * SEWARD (Integral evaluation for generally contracted gaussian basis sets)     Author: Roland Lindh, 1990

 Geometry written to block  1 of record 700

 Orientation using atomic masses  
 Molecule type: Asymmetric top
 Rotational constants:     792.8710730    278.8617538    430.1506016 GHz

 Point group  C1  



 ATOMIC COORDINATES

 NR  ATOM    CHARGE       X              Y              Z

   1  O       8.00    0.000000000    0.000000000   -0.126199963
   2  H       1.00    1.442745183    0.000000000    1.001442240
   3  H       1.00   -1.442745183    0.000000000    1.001442240

 Bond lengths in Bohr (Angstrom)

 1-2  1.831144615  1-3  1.831144615
     ( 0.969000000)     ( 0.969000000)

 Bond angles

  2-1-3  103.97800000

 NUCLEAR CHARGE:                   10
 NUMBER OF PRIMITIVE AOS:          21
 NUMBER OF SYMMETRY AOS:           21
 NUMBER OF CONTRACTIONS:            7   (    7A   )
 NUMBER OF CORE ORBITALS:           1   (    1A   )
 NUMBER OF VALENCE ORBITALS:        6   (    6A   )


 NUCLEAR REPULSION ENERGY    9.08426575

 EXTRA SYMMETRY OF AOS IN SYMMETRY 1:   1 1 1 2 1 1 1

 Eigenvalues of metric

         1 0.350E+00 0.425E+00 0.885E+00 0.100E+01 0.109E+01 0.133E+01 0.192E+01


 Contracted 2-electron integrals neglected if value below      1.0D-11
 AO integral compression algorithm  1   Integral accuracy      1.0D-11

     0.262 MB (compressed) written to integral file (100.0%)


 NUMBER OF SORTED TWO-ELECTRON INTEGRALS:        406.     BUFFER LENGTH:  32768
 NUMBER OF SEGMENTS:   1  SEGMENT LENGTH:        406      RECORD LENGTH: 524288

 Memory used in sort:       0.56 MW

 SORT1 READ         543. AND WROTE         228. INTEGRALS IN      1 RECORDS. CPU TIME:     0.00 SEC, REAL TIME:     0.00 SEC
 SORT2 READ         228. AND WROTE         406. INTEGRALS IN      1 RECORDS. CPU TIME:     0.00 SEC, REAL TIME:     0.00 SEC

 FILE SIZES:   FILE 1:    30.2 MBYTE,  FILE 4:     4.2 MBYTE,   TOTAL:     34.4 MBYTE

 OPERATOR DM      FOR CENTER  0  COORDINATES:    0.000000    0.000000    0.000000


 **********************************************************************************************************************************
 DATASETS  * FILE   NREC   LENGTH (MB)   RECORD NAMES
              1      19       29.95       500      610      700      900      950      970     1000      129      960     1100   
                                          VAR    BASINP    GEOM    SYMINP    ZMAT    AOBASIS   BASIS     P2S    ABASIS      S 
                                         1400     1410     1200     1210     1080     1600     1650     1300     1700   
                                           T        V       H0       H01     AOSYM     SMH    MOLCAS    ERIS     OPER   

 PROGRAMS   *        TOTAL       INT
 CPU TIMES  *         0.67      0.12
 REAL TIME  *         0.93 SEC
 DISK USED  *        34.70 MB
 **********************************************************************************************************************************


 PROGRAM * RHF-SCF (CLOSED SHELL)       Authors: W. Meyer, H.-J. Werner


 NUMBER OF ELECTRONS:       5+    5-    SPACE SYMMETRY=1    SPIN SYMMETRY: Singlet 
 CONVERGENCE THRESHOLDS:    1.00E-06 (Density)    1.00E-07 (Energy)
 MAX. NUMBER OF ITERATIONS:       60
 INTERPOLATION TYPE:            DIIS
 INTERPOLATION STEPS:              2 (START)      1 (STEP)
 LEVEL SHIFTS:                  0.00 (CLOSED)  0.00 (OPEN) 



 Orbital guess generated from atomic densities. Full valence occupancy:    5

 Molecular orbital dump at record        2100.2

 Initial occupancy:   5

 ITERATION    DDIFF          GRAD             ENERGY        2-EL.EN.            DIPOLE MOMENTS         DIIS   ORB.
    1      0.000D+00      0.000D+00       -74.87107589     79.669371   -0.00000   -0.00000    1.26431    0    start
    2      0.000D+00      0.791D-01       -74.96363217     76.002620   -0.00000   -0.00000    0.65086    1    diag
    3      0.135D+00      0.848D-02       -74.96441874     76.253633   -0.00000   -0.00000    0.67994    2    diag
    4      0.937D-02      0.138D-02       -74.96444887     76.250762   -0.00000   -0.00000    0.67439    3    diag
    5      0.291D-02      0.880D-04       -74.96444909     76.251097    0.00000   -0.00000    0.67429    4    diag
    6      0.249D-03      0.192D-04       -74.96444911     76.250806   -0.00000   -0.00000    0.67421    5    diag
    7      0.718D-04      0.825D-06       -74.96444911     76.250838   -0.00000   -0.00000    0.67421    6    diag
    8      0.232D-05      0.384D-09       -74.96444911     76.250838   -0.00000   -0.00000    0.67421    6    diag
    9      0.132D-08      0.200D-12       -74.96444911     76.250838   -0.00000   -0.00000    0.67421    0    orth

 Final occupancy:   5

 !RHF STATE  1.1 Energy               -74.964449105087
 Nuclear energy                         9.08426575
 One-electron energy                 -122.17413372
 Two-electron energy                   38.12541886
 Virial quotient                       -1.00540132
 !RHF STATE  1.1 Dipole moment         -0.00000000    -0.00000000     0.67421346
 Dipole moment /Debye                  -0.00000000    -0.00000000     1.71356746

 Orbital energies:

         1.1          2.1          3.1          4.1          5.1          6.1          7.1
    -20.243919    -1.263083    -0.610865    -0.452873    -0.390909     0.594961     0.726921


 HOMO      5.1    -0.390909 =     -10.6372eV
 LUMO      6.1     0.594961 =      16.1897eV
 LUMO-HOMO         0.985870 =      26.8269eV


 **********************************************************************************************************************************
 DATASETS  * FILE   NREC   LENGTH (MB)   RECORD NAMES
              1      19       29.95       500      610      700      900      950      970     1000      129      960     1100   
                                          VAR    BASINP    GEOM    SYMINP    ZMAT    AOBASIS   BASIS     P2S    ABASIS      S 
                                         1400     1410     1200     1210     1080     1600     1650     1300     1700   
                                           T        V       H0       H01     AOSYM     SMH    MOLCAS    ERIS     OPER   

              2       4        2.75       700     1000      520     2100   
                                         GEOM     BASIS   MCVARS     RHF  

 PROGRAMS   *        TOTAL    HF-SCF       INT
 CPU TIMES  *         0.81      0.14      0.12
 REAL TIME  *         1.11 SEC
 DISK USED  *        34.70 MB
 **********************************************************************************************************************************


 PROGRAM * OPT (Geometry optimization)     Authors: F. Eckert and H.-J. Werner


 BFGS update of hessian

 *** Long output written to logfile /scratch/on41/pk8622/Test_Calcs/Water/New/Molpro/HF_STO-3G.log ***


 Geometry optimization using default procedure for command HF-SCF

 Geometry written to block  1 of record 701

 Making model hessian for cartesian coordinates

 Entering Rational Function Geometry Optimization

 ITER.   ENERGY(OLD)    ENERGY(NEW)      DE          GRADMAX     GRADNORM    GRADRMS     STEPMAX     STEPLEN     STEPRMS   CPU-time
   1   -74.96444911   -74.96588867    -0.00143957  0.05389647  0.05492756  0.01830919  0.04771161  0.06332917  0.03656312      0.23
   2   -74.96588867   -74.96590016    -0.00001149  0.00438679  0.00464925  0.00154975  0.00824493  0.00923515  0.00533191      0.45
   3   -74.96590016   -74.96590119    -0.00000103  0.00070580  0.00086302  0.00028767  0.00268909  0.00271664  0.00156845      0.68
   4   -74.96590119   -74.96590119    -0.00000000  0.00004724  0.00005157  0.00001719  0.00007867  0.00009003  0.00005198      0.90
   5   -74.96590119   -74.96590119    -0.00000000  0.00000330  0.00000333  0.00000111  0.00000286  0.00000334  0.00000193      1.10
   6   -74.96590119   -74.96590119    -0.00000000  0.00000001  0.00000001  0.00000000  0.00000002  0.00000002  0.00000001      1.27

 END OF GEOMETRY OPTIMIZATION.

 Current geometry (xyz format, in Angstrom)

    3
 HF-SCF000/STO-3G  ENERGY=-74.96590119
 O          0.0000000000        0.0000000000       -0.0928352686
 H          0.7580806724        0.0000000000        0.5429669735
 H         -0.7580806724        0.0000000000        0.5429669735

 **********************************************************************************************************************************

 Geometry written to block  1 of record 701


 **********************************************************************************************************************************
 DATASETS  * FILE   NREC   LENGTH (MB)   RECORD NAMES
              1      20       30.17       500      610      700      900      701      950      970     1000      129      960   
                                          VAR    BASINP    GEOM    SYMINP    GEOM     ZMAT    AOBASIS   BASIS     P2S    ABASIS    
                                         1100     1400     1410     1200     1210     1080     1600     1650     1300     1700   
                                           S        T        V       H0       H01     AOSYM     SMH    MOLCAS    ERIS     OPER   

              2       5        2.78       700     1000      520     2100      701   
                                         GEOM     BASIS   MCVARS     RHF     GEOM   

 PROGRAMS   *        TOTAL      OPTG    HF-SCF       INT
 CPU TIMES  *         2.13      1.27      0.14      0.12
 REAL TIME  *         2.89 SEC
 DISK USED  *        37.47 MB
 **********************************************************************************************************************************


 PROGRAM * HESSIAN

 Computing numerical hessian using default procedure for command HF-SCF

 Symmetry elements for unique displacements: X  Y  

 Using AUTO symmetry option

 Running default procedure: HF-SCF000
 

 Numerically approximating hessian using central gradient differences

 Task list generated. Total number of displacements:      9

    5 tasks completed, CPU=1s Elapsed=1s

 Numerical HF-SCF000 hessian completed. CPU-time:     2.51 sec, Elapsed:     2.88 sec

 HF-SCF hessian saved to record  5300.2

 PROGRAM * FREQUENCIES (Calculation of harmonic vibrational spectra for HF-SCF)


 Permanent Dipole Moment [debye]
   1-  3    0.000000    0.000000    1.709096

 Dipole Moment Norm    1.7090957 [debye]

 Dipole Moment Derivatives [debye/ang]
                   1             2             3             4             5             6             7             8
         1    -0.1496622     0.0000000     0.0000000     0.0748256     0.0000000    -1.0644925     0.0748256     0.0000000
         2     0.0000000    -2.6879863     0.0000000     0.0000000     1.3440127     0.0000000     0.0000000     1.3440127
         3     0.0000000     0.0000000     0.4010780    -0.7543564     0.0000000    -0.2005793     0.7543564     0.0000000
                   9
         1     1.0644925
         2     0.0000000
         3    -0.2005793

 Projecting out rotations and translations

   Low Vibration      Wavenumber
        Nr             [1/cm] 
        1                0.00
        2                0.00
        3                0.00
        4                0.00
        5                0.00
        6                0.00

     Vibration        Wavenumber
        Nr             [1/cm] 
        1             2169.84
        2             4140.03
        3             4391.08

 FREQUENCIES * CALCULATION OF NORMAL MODES FOR HF-SCF


 Atomic Coordinates

  Nr  Atom  Charge       X              Y              Z

   1   O     8.00    0.000000000    0.000000000   -0.134464868
   2   H     1.00    1.432564851    0.000000000    1.067027239
   3   H     1.00   -1.432564851    0.000000000    1.067027239

 Gradient norm at reference geometry: 0.13829D-07

 Normal Modes

                              1 A1        2 A1        3 B2 
 Wavenumbers [cm-1]         2169.84     4140.03     4391.08
 Intensities [km/mol]          7.24       44.29       29.97
 Intensities [relative]       16.34      100.00       67.67
           OX1              0.00000     0.00000    -0.06562
           OY1              0.00000     0.00000    -0.00000
           OZ1             -0.06612    -0.05123     0.00000
           HX2             -0.43140     0.55679     0.52076
           HY2              0.00000     0.00000     0.00000
           HZ2              0.52471     0.40654     0.43676
           HX3              0.43140    -0.55679     0.52076
           HY3              0.00000    -0.00000     0.00000
           HZ3              0.52471     0.40654    -0.43676


 Normal Modes of low/zero frequencies

                                  1           2           3           4           5
 Wavenumbers [cm-1]            0.00        0.00        0.00        0.00        0.00
 Intensities [km/mol]          0.00        0.00        0.00        0.00        0.00
 Intensities [relative]        0.00        0.00        0.00        0.00        0.00
           OX1             -0.00107     0.00096    -0.01540     0.00000     0.19096
           OY1              0.01999     0.00162    -0.03557    -0.00000     0.14851
           OZ1              0.12513    -0.02627     0.19662     0.00000     0.02177
           HX2             -0.38143     0.00175     0.22646     0.00000     0.16225
           HY2              0.06106     0.98987     0.09307     0.00000     0.00303
           HZ2              0.57865    -0.02722    -0.09176    -0.00000     0.05599
           HX3             -0.38143     0.00175     0.22646     0.00000     0.16225
           HY3              0.00000    -0.00000    -0.00000     0.99611    -0.00000
           HZ3             -0.32839    -0.02533     0.48499     0.00000    -0.01246

                                  6
 Wavenumbers [cm-1]            0.00
 Intensities [km/mol]          0.00
 Intensities [relative]        0.00
           OX1             -0.14666
           OY1              0.19697
           OZ1              0.00662
           HX2             -0.04274
           HY2              0.00019
           HZ2             -0.11729
           HX3             -0.04274
           HY3             -0.00000
           HZ3              0.13052


 Frequencies dumped to record   5400.2

 Zero point energy:  0.02437853 [H]     5350.47 [1/CM]       64.01 [KJ/MOL]

 Recomputing wavefunction at initial geometry


 **********************************************************************************************************************************
 DATASETS  * FILE   NREC   LENGTH (MB)   RECORD NAMES
              1      20       30.19       500      610      701      702      900      950      970     1001      129      960   
                                          VAR    BASINP    GEOM     GEOM    SYMINP    ZMAT    AOBASIS   BASIS     P2S    ABASIS    
                                         1100     1400     1410     1200     1210     1080     1600     1650     1300     1700   
                                           S        T        V       H0       H01     AOSYM     SMH    MOLCAS    ERIS     OPER   

              2      11        5.69       700     1000      520     2100      701     5300     5450     5400      702     1001   
                                         GEOM     BASIS   MCVARS     RHF     GEOM     HESS     NMOD     FREQ     GEOM     BASIS   
                                         2101   
                                          RHF  

 PROGRAMS   *        TOTAL      FREQ      OPTG    HF-SCF       INT
 CPU TIMES  *         4.57      2.39      1.27      0.14      0.12
 REAL TIME  *         6.11 SEC
 DISK USED  *        38.38 MB
 **********************************************************************************************************************************

 HF/STO-3G energy=    -74.965901192272

    OPTG(HF-SCF)          HF-SCF
    -74.96590119    -74.96444911
 **********************************************************************************************************************************
 Molpro calculation terminated
