
 Primary working directories    : /jobfs/8021135.gadi-pbs/molpro.kYR1UhBwUr
 Secondary working directories  : /jobfs/8021135.gadi-pbs/molpro.kYR1UhBwUr
 Wavefunction directory         : /home/561/pk8622/wfu/
 Main file repository           : /jobfs/8021135.gadi-pbs/molpro.kYR1UhBwUr/

 id        : anu

 Nodes                            nprocs
 gadi-cpu-clx-1000.gadi.nci.org.au    1

 Using customized tuning parameters: mindgm=1; mindgv=20; mindgc=4; mindgr=1; noblas=0; minvec=7
 default implementation of scratch files=df  


 Variables initialized (934), CPU time= 0.01 sec
 ***,Geometry optimization + Harmonic vibrational analysis for H2O
 
 memory,40,m
 basis=def2-TZVP
 
 symmetry,nosym
 orient,planexz
 angstrom
 
 geometry={
 O
 H, 1, 0.96900
 H, 1, 0.96900, 2, 103.97800
 }
 mass,iso
 
 ks,M06
 optg
 
 ks,M06
 frequencies
 Commands  initialized (763), CPU time= 0.01 sec, 617 directives.
 Default parameters read. Elapsed time= 0.09 sec

 Checking input...
 Passed
1


                                         ***  PROGRAM SYSTEM MOLPRO  ***
                                       Copyright, TTI GmbH Stuttgart, 2015
                                    Version 2019.2 linked Nov 21 2019 12:21:21


 **********************************************************************************************************************************
 LABEL *   Geometry optimization + Harmonic vibrational analysis for H2O                 
  64 bit serial version                                                                  DATE: 05-Jul-20          TIME: 18:41:44  
 **********************************************************************************************************************************

 SHA1:             8dbd9ae1082e4ce945b0f27595c9eb2d4aa09004
 **********************************************************************************************************************************

 Variable memory set to   40000000 words,  buffer space 

 SETTING BASIS          =    DEF2-TZVP
 ZSYMEL=NOSYM
 ZPLANE=XZ
 ZUNIT=ANG
 


 Using masses of most abundant isotopes

 **********************************************************************************************************************************


 Recomputing integrals since basis changed


 Using spherical harmonics

 Library entry O      S def2-TZVP            selected for orbital group  1
 Library entry O      P def2-TZVP            selected for orbital group  1
 Library entry O      D def2-TZVP            selected for orbital group  1
 Library entry O      F def2-TZVP            selected for orbital group  1
 Library entry H      S def2-TZVP            selected for orbital group  2
 Library entry H      P def2-TZVP            selected for orbital group  2


 PROGRAM * SEWARD (Integral evaluation for generally contracted gaussian basis sets)     Author: Roland Lindh, 1990

 Geometry written to block  1 of record 700

 Orientation using atomic masses  
 Molecule type: Asymmetric top
 Rotational constants:     792.8710730    278.8617538    430.1506016 GHz

 Point group  C1  



 ATOMIC COORDINATES

 NR  ATOM    CHARGE       X              Y              Z

   1  O       8.00    0.000000000    0.000000000   -0.126199963
   2  H       1.00    1.442745183    0.000000000    1.001442240
   3  H       1.00   -1.442745183    0.000000000    1.001442240

 Bond lengths in Bohr (Angstrom)

 1-2  1.831144615  1-3  1.831144615
     ( 0.969000000)     ( 0.969000000)

 Bond angles

  2-1-3  103.97800000

 NUCLEAR CHARGE:                   10
 NUMBER OF PRIMITIVE AOS:          67
 NUMBER OF SYMMETRY AOS:           62
 NUMBER OF CONTRACTIONS:           43   (   43A   )
 NUMBER OF CORE ORBITALS:           1   (    1A   )
 NUMBER OF VALENCE ORBITALS:        6   (    6A   )


 NUCLEAR REPULSION ENERGY    9.08426575

 EXTRA SYMMETRY OF AOS IN SYMMETRY 1:   1 1 1 1 1 1 2 1 1 2   1 1 2 1 1 2 1 1 2 1   2 1 1 2 1 2 1 1 2 2   1 1 1 1 1 2 1 1 1 1
                                        1 2 1

 Eigenvalues of metric

         1 0.873E-02 0.142E-01 0.145E-01 0.562E-01 0.944E-01 0.105E+00 0.111E+00 0.179E+00


 Contracted 2-electron integrals neglected if value below      1.0D-11
 AO integral compression algorithm  1   Integral accuracy      1.0D-11

     1.573 MB (compressed) written to integral file ( 31.2%)


 NUMBER OF SORTED TWO-ELECTRON INTEGRALS:     447931.     BUFFER LENGTH:  32768
 NUMBER OF SEGMENTS:   1  SEGMENT LENGTH:     447931      RECORD LENGTH: 524288

 Memory used in sort:       1.00 MW

 SORT1 READ      537817. AND WROTE      182395. INTEGRALS IN      1 RECORDS. CPU TIME:     0.01 SEC, REAL TIME:     0.01 SEC
 SORT2 READ      182395. AND WROTE      447931. INTEGRALS IN      6 RECORDS. CPU TIME:     0.03 SEC, REAL TIME:     0.03 SEC

 FILE SIZES:   FILE 1:    31.6 MBYTE,  FILE 4:     4.2 MBYTE,   TOTAL:     35.8 MBYTE

 OPERATOR DM      FOR CENTER  0  COORDINATES:    0.000000    0.000000    0.000000


 **********************************************************************************************************************************
 DATASETS  * FILE   NREC   LENGTH (MB)   RECORD NAMES
              1      19       31.05       500      610      700      900      950      970     1000      129      960     1100   
                                          VAR    BASINP    GEOM    SYMINP    ZMAT    AOBASIS   BASIS     P2S    ABASIS      S 
                                         1400     1410     1200     1210     1080     1600     1650     1300     1700   
                                           T        V       H0       H01     AOSYM     SMH    MOLCAS    ERIS     OPER   

 PROGRAMS   *        TOTAL       INT
 CPU TIMES  *         0.95      0.35
 REAL TIME  *         1.13 SEC
 DISK USED  *        36.11 MB
 **********************************************************************************************************************************

 Density functional group M06=XC-M06
 Functional: XC-M06(via MFM 1.6)                                               Gradient terms: 1
 Use libxcgrid:  F
 Use grid at  1800.2
 

 Exact exchange will be calculated, factor:  0.2700

 Functional: XC-M06                    Factor:  1.0000
 
 Generated new metagrid on record  1800.2 with target accuracy 1.0D-06 and 12928 points in CPU time    0.1
 Computed new grid on record 1800.1 in CPU time    0.1
   37991 words reserved for DFT integration

 PROGRAM * RKS-SCF (Restricted closed shell Kohn-Sham)     Authors: W. Meyer, H.-J. Werner, P.J. Knowles, 1993

 NUMBER OF ELECTRONS:       5+    5-    SPACE SYMMETRY=1    SPIN SYMMETRY: Singlet 
 CONVERGENCE THRESHOLDS:    1.00E-06 (Density)    1.00E-06 (Energy)
 MAX. NUMBER OF ITERATIONS:       60
 INTERPOLATION TYPE:            DIIS
 INTERPOLATION STEPS:              2 (START)      1 (STEP)
 LEVEL SHIFTS:                  0.00 (CLOSED)  0.00 (OPEN) 



 Use fine grid record 1800.2 for energy threshold  1.0D-06
 Orbital guess generated from atomic densities. Full valence occupancy:    5

 Molecular orbital dump at record        2100.2

 Initial occupancy:   5

 ITERATION    DDIFF          GRAD             ENERGY        2-EL.EN.            DIPOLE MOMENTS         DIIS   ORB.
    1      0.000D+00      0.000D+00       -76.34794229     93.011940   -0.00000   -0.00000    1.18429    0    start
    2      0.000D+00      0.231D-01       -76.26601733     82.605802    0.00000   -0.00000    0.35286    1    diag
    3      0.220D-01      0.345D-01       -76.42181263     88.840558    0.00000   -0.00000    0.81625    2    diag
    4      0.136D-01      0.777D-03       -76.42189586     88.737389   -0.00000    0.00000    0.82545    3    diag
    5      0.502D-03      0.263D-03       -76.42190213     88.760058    0.00000    0.00000    0.82428    4    diag
    6      0.105D-03      0.703D-04       -76.42190272     88.770601   -0.00000   -0.00000    0.82544    5    diag
    7      0.207D-04      0.134D-05       -76.42190272     88.770680    0.00000   -0.00000    0.82544    6    diag
    8      0.728D-06      0.218D-06       -76.42190272     88.770768   -0.00000   -0.00000    0.82545    0    orth

 Final occupancy:   5

 !RKS STATE  1.1 Energy               -76.421902717950
 Nuclear energy                         9.08426575
 One-electron energy                 -122.99806684
 Two-electron energy                   44.38538400
 SCF exchange energy                   -8.93596856     Factor= 0.2700
 Density functional                    -6.89348562     XC-M06=-6.89348562
 Virial quotient                       -1.00333621
 !RKS STATE  1.1 Dipole moment         -0.00000000    -0.00000000     0.82544500
 Dipole moment /Debye                  -0.00000000    -0.00000000     2.09793451

 Orbital energies:

         1.1          2.1          3.1          4.1          5.1          6.1          7.1
    -19.204613    -1.031802    -0.537716    -0.402412    -0.326277     0.020113     0.077098


 HOMO      5.1    -0.326277 =      -8.8784eV
 LUMO      6.1     0.020113 =       0.5473eV
 LUMO-HOMO         0.346390 =       9.4258eV


 **********************************************************************************************************************************
 DATASETS  * FILE   NREC   LENGTH (MB)   RECORD NAMES
              1      20       31.47       500      610      700      900      950      970     1000      129      960     1100   
                                          VAR    BASINP    GEOM    SYMINP    ZMAT    AOBASIS   BASIS     P2S    ABASIS      S 
                                         1400     1410     1200     1210     1080     1600     1650     1300     1700     1800   
                                           T        V       H0       H01     AOSYM     SMH    MOLCAS    ERIS     OPER     GRID   

              2       5        2.80       700     1000      520     1800     2100   
                                         GEOM     BASIS   MCVARS    GRID      RKS  

 PROGRAMS   *        TOTAL    KS-SCF       INT
 CPU TIMES  *         1.83      0.88      0.35
 REAL TIME  *         2.04 SEC
 DISK USED  *        36.11 MB
 **********************************************************************************************************************************


 PROGRAM * OPT (Geometry optimization)     Authors: F. Eckert and H.-J. Werner


 BFGS update of hessian

 *** Long output written to logfile /scratch/on41/pk8622/Test_Calcs/Water/molpro_M06_def2-TZVP.log ***


 Geometry optimization using default procedure for command KS-SCF

 Geometry written to block  1 of record 701

 Making model hessian for cartesian coordinates

 Entering Rational Function Geometry Optimization

 ITER.   ENERGY(OLD)    ENERGY(NEW)      DE          GRADMAX     GRADNORM    GRADRMS     STEPMAX     STEPLEN     STEPRMS   CPU-time
   1   -76.42190272   -76.42209512    -0.00019240  0.01970243  0.01970572  0.00656857  0.01525211  0.01534010  0.00885661      2.06
   2   -76.42209512   -76.42210302    -0.00000789  0.00621080  0.00629927  0.00209976  0.00750081  0.01010016  0.00583133      4.02
 Freezing grid
   3   -76.42210302   -76.42210528    -0.00000226  0.00055538  0.00059483  0.00019828  0.00256798  0.00257150  0.00148465      6.08
   4   -76.42210528   -76.42210323     0.00000204  0.00022058  0.00026636  0.00008879  0.00162833  0.00162862  0.00094028      7.96
   5   -76.42210323   -76.42210364    -0.00000040  0.00004349  0.00004396  0.00001465  0.00028258  0.00028395  0.00016394      9.68

 END OF GEOMETRY OPTIMIZATION.

 Current geometry (xyz format, in Angstrom)

    3
 KS-SCF000/DEF2-TZVP  ENERGY=-76.42210364
 O          0.0000000000        0.0000000000       -0.0555739798
 H          0.7632923644        0.0000000000        0.5243363291
 H         -0.7632923644        0.0000000000        0.5243363291

 **********************************************************************************************************************************

 Geometry written to block  1 of record 701


 **********************************************************************************************************************************
 DATASETS  * FILE   NREC   LENGTH (MB)   RECORD NAMES
              1      21       32.00       500      610      700      900      701      950      970     1000      129      960   
                                          VAR    BASINP    GEOM    SYMINP    GEOM     ZMAT    AOBASIS   BASIS     P2S    ABASIS    
                                         1100     1400     1410     1200     1210     1080     1600     1650     1300     1700   
                                           S        T        V       H0       H01     AOSYM     SMH    MOLCAS    ERIS     OPER   
                                         1800   
                                         GRID   

              2       6        2.86       700     1000      520     1800     2100      701   
                                         GEOM     BASIS   MCVARS    GRID      RKS     GEOM   

 PROGRAMS   *        TOTAL      OPTG    KS-SCF       INT
 CPU TIMES  *        11.56      9.68      0.88      0.35
 REAL TIME  *        12.31 SEC
 DISK USED  *        39.21 MB
 **********************************************************************************************************************************


 Recomputing integrals since geometry changed


 PROGRAM * SEWARD (Integral evaluation for generally contracted gaussian basis sets)     Author: Roland Lindh, 1990

 Geometry written to block  1 of record 701

 Orientation using atomic masses  
 Molecule type: Asymmetric top
 Rotational constants:     839.5099034    284.5055732    430.3484375 GHz

 Point group  C1  



 ATOMIC COORDINATES

 NR  ATOM    CHARGE       X              Y              Z

   1  O       8.00    0.000000000    0.000000000   -0.122644366
   2  H       1.00    1.442413522    0.000000000    0.973227295
   3  H       1.00   -1.442413522    0.000000000    0.973227295

 Bond lengths in Bohr (Angstrom)

 1-2  1.811488742  1-3  1.811488742
     ( 0.958598560)     ( 0.958598560)

 Bond angles

  2-1-3  105.54859475

 NUCLEAR CHARGE:                   10
 NUMBER OF PRIMITIVE AOS:          67
 NUMBER OF SYMMETRY AOS:           62
 NUMBER OF CONTRACTIONS:           43   (   43A   )
 NUMBER OF CORE ORBITALS:           1   (    1A   )
 NUMBER OF VALENCE ORBITALS:        6   (    6A   )


 NUCLEAR REPULSION ENERGY    9.17915541

 EXTRA SYMMETRY OF AOS IN SYMMETRY 1:   1 1 1 1 1 1 2 1 1 2   1 1 2 1 1 2 1 1 2 1   2 1 1 2 1 2 1 1 2 2   1 1 1 1 1 2 1 1 1 1
                                        1 2 1

 Eigenvalues of metric

         1 0.836E-02 0.138E-01 0.141E-01 0.548E-01 0.930E-01 0.104E+00 0.110E+00 0.178E+00


 Contracted 2-electron integrals neglected if value below      1.0D-12
 AO integral compression algorithm  1   Integral accuracy      1.0D-12

     1.835 MB (compressed) written to integral file ( 45.8%)


 NUMBER OF SORTED TWO-ELECTRON INTEGRALS:     447931.     BUFFER LENGTH:  32768
 NUMBER OF SEGMENTS:   1  SEGMENT LENGTH:     447931      RECORD LENGTH: 524288

 Memory used in sort:       1.00 MW

 SORT1 READ      537817. AND WROTE      182409. INTEGRALS IN      1 RECORDS. CPU TIME:     0.01 SEC, REAL TIME:     0.01 SEC
 SORT2 READ      182409. AND WROTE      447931. INTEGRALS IN      7 RECORDS. CPU TIME:     0.03 SEC, REAL TIME:     0.03 SEC

 FILE SIZES:   FILE 1:    32.1 MBYTE,  FILE 4:     4.2 MBYTE,   TOTAL:     36.3 MBYTE

 OPERATOR DM      FOR CENTER  0  COORDINATES:    0.000000    0.000000    0.000000


 **********************************************************************************************************************************
 DATASETS  * FILE   NREC   LENGTH (MB)   RECORD NAMES
              1      20       31.61       500      610      700      900      701      950      970     1000      129      960   
                                          VAR    BASINP    GEOM    SYMINP    GEOM     ZMAT    AOBASIS   BASIS     P2S    ABASIS    
                                         1100     1400     1410     1200     1210     1080     1600     1650     1300     1700   
                                           S        T        V       H0       H01     AOSYM     SMH    MOLCAS    ERIS     OPER   

              2       6        2.86       700     1000      520     1800     2100      701   
                                         GEOM     BASIS   MCVARS    GRID      RKS     GEOM   

 PROGRAMS   *        TOTAL       INT      OPTG    KS-SCF       INT
 CPU TIMES  *        11.89      0.28      9.68      0.88      0.35
 REAL TIME  *        12.71 SEC
 DISK USED  *        39.21 MB
 **********************************************************************************************************************************

 Density functional group M06=XC-M06
 Functional: XC-M06(via MFM 1.6)                                               Gradient terms: 1
 Use libxcgrid:  F
 Use grid at  1800.2
 

 Exact exchange will be calculated, factor:  0.2700

 Functional: XC-M06                    Factor:  1.0000
 
 Generated new metagrid on record  1800.2 with target accuracy 1.0D-06 and 12268 points in CPU time    0.1
 Computed new grid on record 1800.1 in CPU time    0.1
   37991 words reserved for DFT integration

 PROGRAM * RKS-SCF (Restricted closed shell Kohn-Sham)     Authors: W. Meyer, H.-J. Werner, P.J. Knowles, 1993

 NUMBER OF ELECTRONS:       5+    5-    SPACE SYMMETRY=1    SPIN SYMMETRY: Singlet 
 CONVERGENCE THRESHOLDS:    1.00E-07 (Density)    1.00E-06 (Energy)
 MAX. NUMBER OF ITERATIONS:       60
 INTERPOLATION TYPE:            DIIS
 INTERPOLATION STEPS:              2 (START)      1 (STEP)
 LEVEL SHIFTS:                  0.00 (CLOSED)  0.00 (OPEN) 



 Use fine grid record 1800.2 for energy threshold  1.0D-06
 Molecular orbitals read from record     2100.2  Type=RKS/CANONICAL (state 1.1)

 Molecular orbital dump at record        2101.2

 ITERATION    DDIFF          GRAD             ENERGY        2-EL.EN.            DIPOLE MOMENTS         DIIS   ORB.
    1      0.000D+00      0.000D+00       -76.42210358     88.940589    0.00000   -0.00000    0.81346    0    start
    2      0.000D+00      0.133D-06       -76.42210358     88.940647    0.00000    0.00000    0.81346    1    diag
    3      0.108D-06      0.194D-06       -76.42210358     88.940613    0.00000    0.00000    0.81346    2    diag
    4      0.640D-07      0.237D-08       -76.42210358     88.940612   -0.00000   -0.00000    0.81346    0    orth

 Final occupancy:   5

 !RKS STATE  1.1 Energy               -76.422103577385
 Nuclear energy                         9.17915541
 One-electron energy                 -123.17083892
 Two-electron energy                   44.47030618
 SCF exchange energy                   -8.94705632     Factor= 0.2700
 Density functional                    -6.90072625     XC-M06=-6.90072625
 Virial quotient                       -1.00287326
 !RKS STATE  1.1 Dipole moment         -0.00000000    -0.00000000     0.81345735
 Dipole moment /Debye                  -0.00000000    -0.00000000     2.06746694

 Orbital energies:

         1.1          2.1          3.1          4.1          5.1          6.1          7.1
    -19.202109    -1.035038    -0.544288    -0.400342    -0.327000     0.021831     0.078178


 HOMO      5.1    -0.327000 =      -8.8981eV
 LUMO      6.1     0.021831 =       0.5941eV
 LUMO-HOMO         0.348831 =       9.4922eV


 **********************************************************************************************************************************
 DATASETS  * FILE   NREC   LENGTH (MB)   RECORD NAMES
              1      21       32.00       500      610      700      900      701      950      970     1000      129      960   
                                          VAR    BASINP    GEOM    SYMINP    GEOM     ZMAT    AOBASIS   BASIS     P2S    ABASIS    
                                         1100     1400     1410     1200     1210     1080     1600     1650     1300     1700   
                                           S        T        V       H0       H01     AOSYM     SMH    MOLCAS    ERIS     OPER   
                                         1800   
                                         GRID   

              2       7        5.58       700     1000      520     1800     2100      701     2101   
                                         GEOM     BASIS   MCVARS    GRID      RKS     GEOM      RKS  

 PROGRAMS   *        TOTAL    KS-SCF       INT      OPTG    KS-SCF       INT
 CPU TIMES  *        12.33      0.44      0.28      9.68      0.88      0.35
 REAL TIME  *        13.17 SEC
 DISK USED  *        39.21 MB
 **********************************************************************************************************************************


 PROGRAM * HESSIAN

 Computing numerical hessian using default procedure for command KS-SCF

 Symmetry elements for unique displacements: X  Y  

 Using no symmetry in wavefunction calculations

 Running default procedure: KS-SCF001
 

 Recomputing wavefunction at reference geometry

 Numerically approximating hessian using central gradient differences

 Task list generated. Total number of displacements:      9

    5 tasks completed, CPU=10s Elapsed=10s

 Numerical KS-SCF001 hessian completed. CPU-time:    17.98 sec, Elapsed:    18.37 sec

 KS-SCF hessian saved to record  5300.2

 PROGRAM * FREQUENCIES (Calculation of harmonic vibrational spectra for KS-SCF)


 Permanent Dipole Moment [debye]
   1-  3    0.000000    0.000000    2.067467

 Dipole Moment Norm    2.0674669 [debye]

 Dipole Moment Derivatives [debye/ang]
                   1             2             3             4             5             6             7             8
         1    -2.5065414     0.0000000     0.0000000     1.2532491     0.0000000    -0.3971520     1.2532491     0.0000000
         2     0.0000000    -3.5640086     0.0000000     0.0000000     1.7820215     0.0000000     0.0000000     1.7820215
         3     0.0000000     0.0000000    -1.8483785    -0.3331620     0.0000000     0.9242716     0.3331620     0.0000000
                   9
         1     0.3971520
         2     0.0000000
         3     0.9242716

 Projecting out rotations and translations

   Low Vibration      Wavenumber
        Nr             [1/cm] 
        1                0.00
        2                0.00
        3                0.00
        4                0.00
        5                0.00
        6                0.00

     Vibration        Wavenumber
        Nr             [1/cm] 
        1             1556.62
        2             3849.09
        3             3974.53

 FREQUENCIES * CALCULATION OF NORMAL MODES FOR KS-SCF


 Atomic Coordinates

  Nr  Atom  Charge       X              Y              Z

   1   O     8.00    0.000000000    0.000000000   -0.122644366
   2   H     1.00    1.442413522    0.000000000    0.973227295
   3   H     1.00   -1.442413522    0.000000000    0.973227295

 Gradient norm at reference geometry: 0.87881D-03

 ?WARNING: GRADIENT NORM NOT ZERO!

 Normal Modes

                              1 A1        2 A1        3 B2 
 Wavenumbers [cm-1]         1556.62     3849.09     3974.53
 Intensities [km/mol]         82.78        7.20       60.61
 Intensities [relative]      100.00        8.70       73.22
           OX1             -0.00000    -0.00000    -0.06801
           OY1              0.00000    -0.00000    -0.00000
           OZ1             -0.06835    -0.04821    -0.00000
           HX2             -0.40599     0.57558     0.53970
           HY2             -0.00000     0.00000     0.00000
           HZ2              0.54241     0.38260     0.41004
           HX3              0.40599    -0.57558     0.53970
           HY3              0.00000     0.00000     0.00000
           HZ3              0.54241     0.38260    -0.41004


 Normal Modes of low/zero frequencies

                                  1           2           3           4           5
 Wavenumbers [cm-1]            0.00        0.00        0.00        0.00        0.00
 Intensities [km/mol]          0.00        0.00        0.00        0.00        0.00
 Intensities [relative]        0.00        0.00        0.00        0.00        0.00
           OX1              0.00603     0.00000    -0.00538     0.00901     0.23474
           OY1             -0.12296     0.00000     0.05294    -0.07871     0.04896
           OZ1              0.18343     0.00000     0.07192    -0.12025     0.01162
           HX2              0.16947    -0.00000    -0.16801     0.25844     0.18557
           HY2              0.02037     0.00000     0.84069     0.53390    -0.00162
           HZ2             -0.03170     0.00000     0.28597    -0.44856     0.07634
           HX3              0.16947    -0.00000    -0.16801     0.25844     0.18557
           HY3             -0.00000     0.99611    -0.00000     0.00000    -0.00000
           HZ3              0.39856     0.00000    -0.14214     0.20806    -0.05311

                                  6
 Wavenumbers [cm-1]            0.00
 Intensities [km/mol]          0.00
 Intensities [relative]        0.00
           OX1             -0.05143
           OY1              0.18975
           OZ1              0.04592
           HX2              0.21601
           HY2              0.00052
           HZ2             -0.30609
           HX3              0.21601
           HY3             -0.00000
           HZ3              0.39793


 Frequencies dumped to record   5400.2

 Zero point energy:  0.02136976 [H]     4690.12 [1/CM]       56.11 [KJ/MOL]

 Recomputing wavefunction at initial geometry


 **********************************************************************************************************************************
 DATASETS  * FILE   NREC   LENGTH (MB)   RECORD NAMES
              1      21       32.00       500      610      700      900      701      950      970     1000      129      960   
                                          VAR    BASINP    GEOM    SYMINP    GEOM     ZMAT    AOBASIS   BASIS     P2S    ABASIS    
                                         1100     1400     1410     1200     1210     1080     1600     1650     1300     1700   
                                           S        T        V       H0       H01     AOSYM     SMH    MOLCAS    ERIS     OPER   
                                         1800   
                                         GRID   

              2      10        5.63       700     1000      520     1800     2100      701     2101     5300     5450     5400   
                                         GEOM     BASIS   MCVARS    GRID      RKS     GEOM      RKS     HESS     NMOD     FREQ   

 PROGRAMS   *        TOTAL      FREQ    KS-SCF       INT      OPTG    KS-SCF       INT
 CPU TIMES  *        30.89     18.51      0.44      0.28      9.68      0.88      0.35
 REAL TIME  *        32.68 SEC
 DISK USED  *        42.24 MB
 **********************************************************************************************************************************

 M06/DEF2-TZVP energy=    -76.422103637719

          KS-SCF    OPTG(KS-SCF)          KS-SCF
    -76.42210358    -76.42210364    -76.42190272
 **********************************************************************************************************************************
 Molpro calculation terminated
