 Entering Gaussian System, Link 0=g16
 Input=1,2-difluoroethane.gjf
 Output=1,2-difluoroethane.log
 Initial command:
 /apps/gaussian/g16c01/g16/l1.exe "/jobfs/7627943.gadi-pbs/Gau-46911.inp" -scrdir="/jobfs/7627943.gadi-pbs/"
 Entering Link 1 = /apps/gaussian/g16c01/g16/l1.exe PID=     46912.
  
 Copyright (c) 1988-2019, Gaussian, Inc.  All Rights Reserved.
  
 This is part of the Gaussian(R) 16 program.  It is based on
 the Gaussian(R) 09 system (copyright 2009, Gaussian, Inc.),
 the Gaussian(R) 03 system (copyright 2003, Gaussian, Inc.),
 the Gaussian(R) 98 system (copyright 1998, Gaussian, Inc.),
 the Gaussian(R) 94 system (copyright 1995, Gaussian, Inc.),
 the Gaussian 92(TM) system (copyright 1992, Gaussian, Inc.),
 the Gaussian 90(TM) system (copyright 1990, Gaussian, Inc.),
 the Gaussian 88(TM) system (copyright 1988, Gaussian, Inc.),
 the Gaussian 86(TM) system (copyright 1986, Carnegie Mellon
 University), and the Gaussian 82(TM) system (copyright 1983,
 Carnegie Mellon University). Gaussian is a federally registered
 trademark of Gaussian, Inc.
  
 This software contains proprietary and confidential information,
 including trade secrets, belonging to Gaussian, Inc.
  
 This software is provided under written license and may be
 used, copied, transmitted, or stored only in accord with that
 written license.
  
 The following legend is applicable only to US Government
 contracts under FAR:
  
                    RESTRICTED RIGHTS LEGEND
  
 Use, reproduction and disclosure by the US Government is
 subject to restrictions as set forth in subparagraphs (a)
 and (c) of the Commercial Computer Software - Restricted
 Rights clause in FAR 52.227-19.
  
 Gaussian, Inc.
 340 Quinnipiac St., Bldg. 40, Wallingford CT 06492
  
  
 ---------------------------------------------------------------
 Warning -- This program may not be used in any manner that
 competes with the business of Gaussian, Inc. or will provide
 assistance to any competitor of Gaussian, Inc.  The licensee
 of this program is prohibited from giving any competitor of
 Gaussian, Inc. access to this program.  By using this program,
 the user acknowledges that Gaussian, Inc. is engaged in the
 business of creating and licensing software in the field of
 computational chemistry and represents and warrants to the
 licensee that it is not a competitor of Gaussian, Inc. and that
 it will not use this program in any manner prohibited above.
 ---------------------------------------------------------------
  

 Cite this work as:
 Gaussian 16, Revision C.01,
 M. J. Frisch, G. W. Trucks, H. B. Schlegel, G. E. Scuseria, 
 M. A. Robb, J. R. Cheeseman, G. Scalmani, V. Barone, 
 G. A. Petersson, H. Nakatsuji, X. Li, M. Caricato, A. V. Marenich, 
 J. Bloino, B. G. Janesko, R. Gomperts, B. Mennucci, H. P. Hratchian, 
 J. V. Ortiz, A. F. Izmaylov, J. L. Sonnenberg, D. Williams-Young, 
 F. Ding, F. Lipparini, F. Egidi, J. Goings, B. Peng, A. Petrone, 
 T. Henderson, D. Ranasinghe, V. G. Zakrzewski, J. Gao, N. Rega, 
 G. Zheng, W. Liang, M. Hada, M. Ehara, K. Toyota, R. Fukuda, 
 J. Hasegawa, M. Ishida, T. Nakajima, Y. Honda, O. Kitao, H. Nakai, 
 T. Vreven, K. Throssell, J. A. Montgomery, Jr., J. E. Peralta, 
 F. Ogliaro, M. J. Bearpark, J. J. Heyd, E. N. Brothers, K. N. Kudin, 
 V. N. Staroverov, T. A. Keith, R. Kobayashi, J. Normand, 
 K. Raghavachari, A. P. Rendell, J. C. Burant, S. S. Iyengar, 
 J. Tomasi, M. Cossi, J. M. Millam, M. Klene, C. Adamo, R. Cammi, 
 J. W. Ochterski, R. L. Martin, K. Morokuma, O. Farkas, 
 J. B. Foresman, and D. J. Fox, Gaussian, Inc., Wallingford CT, 2019.
 
 ******************************************
 Gaussian 16:  ES64L-G16RevC.01  3-Jul-2019
                23-Jun-2020 
 ******************************************
 %NprocShared=4
 Will use up to    4 processors via shared memory.
 %chk=checkpoint.chk
 -------------------------------------------------------
 # M06/Def2TZVP Freq=(anharmonic,ReadAnharm) Opt=CalcAll
 -------------------------------------------------------
 1/10=4,18=20,19=15,26=3,38=1,80=1/1,3;
 2/9=110,12=2,17=6,18=5,40=1/2;
 3/5=44,7=101,11=2,25=1,30=1,71=2,74=-54,140=1/1,2,3;
 4//1;
 5/5=2,38=5/2;
 8/6=4,10=90,11=11/1;
 11/6=1,8=1,9=11,15=111,16=1/1,2,10;
 10/6=1/2;
 6/7=2,8=2,9=2,10=2,18=1,28=1/1;
 7/10=1,25=1/1,2,3,16;
 1/10=4,18=20,19=15,26=3,80=1/3(3);
 2/9=110/2;
 7/8=1,9=1,25=1,44=-1,71=2,72=1/16;
 99//99;
 2/9=110/2;
 3/5=44,7=101,11=2,25=1,30=1,71=2,74=-54,140=1/1,2,3;
 4/5=5,16=3,69=1/1;
 5/5=2,38=5/2;
 8/6=4,10=90,11=11/1;
 11/6=1,8=1,9=11,15=111,16=1/1,2,10;
 10/6=1/2;
 7/10=1,25=1/1,2,3,16;
 1/10=4,18=20,19=15,26=3,80=1/3(-8);
 2/9=110/2;
 6/7=2,8=2,9=2,10=2,18=1,19=2,28=1/1;
 7/8=1,9=1,25=1,44=-1,71=1,72=1/16;
 99//99;
 --------------------------------------------------------
 Anharmonic frequencies for 1,2-difluoroethane using VPT2
 --------------------------------------------------------
 Symbolic Z-matrix:
 Charge =  0 Multiplicity = 1
 C                    -0.61487   1.08139  -0.01148 
 C                     0.89653   1.04038  -0.05036 
 H                    -0.97661   1.49777   0.9322 
 F                    -1.10472  -0.18417  -0.12125 
 H                    -1.01366   1.66195  -0.84739 
 F                     1.36506   0.51827   1.11648 
 H                     1.31422   2.04539  -0.15201 
 H                     1.25568   0.40777  -0.86617 
 

 GradGradGradGradGradGradGradGradGradGradGradGradGradGradGradGradGradGrad
 Berny optimization.
 Initialization pass.
                           ----------------------------
                           !    Initial Parameters    !
                           ! (Angstroms and Degrees)  !
 --------------------------                            --------------------------
 ! Name  Definition              Value          Derivative Info.                !
 --------------------------------------------------------------------------------
 ! R1    R(1,2)                  1.5125         calculate D2E/DX2 analytically  !
 ! R2    R(1,3)                  1.0931         calculate D2E/DX2 analytically  !
 ! R3    R(1,4)                  1.3615         calculate D2E/DX2 analytically  !
 ! R4    R(1,5)                  1.0931         calculate D2E/DX2 analytically  !
 ! R5    R(2,6)                  1.3615         calculate D2E/DX2 analytically  !
 ! R6    R(2,7)                  1.0931         calculate D2E/DX2 analytically  !
 ! R7    R(2,8)                  1.093          calculate D2E/DX2 analytically  !
 ! A1    A(2,1,3)              111.2991         calculate D2E/DX2 analytically  !
 ! A2    A(2,1,4)              109.4062         calculate D2E/DX2 analytically  !
 ! A3    A(2,1,5)              111.0584         calculate D2E/DX2 analytically  !
 ! A4    A(3,1,4)              107.7359         calculate D2E/DX2 analytically  !
 ! A5    A(3,1,5)              109.7041         calculate D2E/DX2 analytically  !
 ! A6    A(4,1,5)              107.5046         calculate D2E/DX2 analytically  !
 ! A7    A(1,2,6)              109.4059         calculate D2E/DX2 analytically  !
 ! A8    A(1,2,7)              111.058          calculate D2E/DX2 analytically  !
 ! A9    A(1,2,8)              111.2987         calculate D2E/DX2 analytically  !
 ! A10   A(6,2,7)              107.5048         calculate D2E/DX2 analytically  !
 ! A11   A(6,2,8)              107.7367         calculate D2E/DX2 analytically  !
 ! A12   A(7,2,8)              109.7042         calculate D2E/DX2 analytically  !
 ! D1    D(3,1,2,6)             46.8824         calculate D2E/DX2 analytically  !
 ! D2    D(3,1,2,7)            -71.6306         calculate D2E/DX2 analytically  !
 ! D3    D(3,1,2,8)            165.8298         calculate D2E/DX2 analytically  !
 ! D4    D(4,1,2,6)            -72.0645         calculate D2E/DX2 analytically  !
 ! D5    D(4,1,2,7)            169.4225         calculate D2E/DX2 analytically  !
 ! D6    D(4,1,2,8)             46.8829         calculate D2E/DX2 analytically  !
 ! D7    D(5,1,2,6)            169.4224         calculate D2E/DX2 analytically  !
 ! D8    D(5,1,2,7)             50.9095         calculate D2E/DX2 analytically  !
 ! D9    D(5,1,2,8)            -71.6302         calculate D2E/DX2 analytically  !
 --------------------------------------------------------------------------------
 Trust Radius=3.00D-01 FncErr=1.00D-07 GrdErr=1.00D-06 EigMax=2.50D+02 EigMin=1.00D-04
 Number of steps in this run=     38 maximum allowed number of steps=    100.
 GradGradGradGradGradGradGradGradGradGradGradGradGradGradGradGradGradGrad

                          Input orientation:                          
 ---------------------------------------------------------------------
 Center     Atomic      Atomic             Coordinates (Angstroms)
 Number     Number       Type             X           Y           Z
 ---------------------------------------------------------------------
      1          6           0       -0.614870    1.081390   -0.011480
      2          6           0        0.896530    1.040380   -0.050360
      3          1           0       -0.976610    1.497770    0.932200
      4          9           0       -1.104720   -0.184170   -0.121250
      5          1           0       -1.013660    1.661950   -0.847390
      6          9           0        1.365060    0.518270    1.116480
      7          1           0        1.314220    2.045390   -0.152010
      8          1           0        1.255680    0.407770   -0.866170
 ---------------------------------------------------------------------
                    Distance matrix (angstroms):
                    1          2          3          4          5
     1  C    0.000000
     2  C    1.512456   0.000000
     3  H    1.093051   2.164089   0.000000
     4  F    1.361486   2.347243   1.988741   0.000000
     5  H    1.093082   2.161118   1.787531   1.985883   0.000000
     6  F    2.347237   1.361483   2.544955   2.850476   3.289848
     7  H    2.161118   1.093089   2.592933   3.289856   2.459594
     8  H    2.164074   1.093037   3.066815   2.544953   2.592918
                    6          7          8
     6  F    0.000000
     7  H    1.985887   0.000000
     8  H    1.988737   1.787526   0.000000
 Stoichiometry    C2H4F2
 Framework group  C1[X(C2H4F2)]
 Deg. of freedom    18
 Full point group                 C1      NOp   1
 Largest Abelian subgroup         C1      NOp   1
 Largest concise Abelian subgroup C1      NOp   1
                         Standard orientation:                         
 ---------------------------------------------------------------------
 Center     Atomic      Atomic             Coordinates (Angstroms)
 Number     Number       Type             X           Y           Z
 ---------------------------------------------------------------------
      1          6           0       -0.686603    0.502984    0.316943
      2          6           0        0.686609    0.502982   -0.316944
      3          1           0       -0.623526    0.377366    1.400918
      4          9           0       -1.413917   -0.535477   -0.179301
      5          1           0       -1.226956    1.424042    0.083493
      6          9           0        1.413912   -0.535481    0.179299
      7          1           0        1.226964    1.424045   -0.083485
      8          1           0        0.623524    0.377378   -1.400906
 ---------------------------------------------------------------------
 Rotational constants (GHZ):          17.7041542           5.1205569           4.5050673
 Standard basis: def2TZVP (5D, 7F)
 There are   168 symmetry adapted cartesian basis functions of A   symmetry.
 There are   148 symmetry adapted basis functions of A   symmetry.
   148 basis functions,   236 primitive gaussians,   168 cartesian basis functions
    17 alpha electrons       17 beta electrons
       nuclear repulsion energy       129.0619055607 Hartrees.
 NAtoms=    8 NActive=    8 NUniq=    8 SFac= 1.00D+00 NAtFMM=   60 NAOKFM=F Big=F
 Integral buffers will be    131072 words long.
 Raffenetti 2 integral format.
 Two-electron integral symmetry is turned on.
 One-electron integrals computed using PRISM.
   1 Symmetry operations used in ECPInt.
 ECPInt:  NShTT=    1830 NPrTT=    5560 LenC2=    1818 LenP2D=    4747.
 LDataN:  DoStor=T MaxTD1= 6 Len=  172
 NBasis=   148 RedAO= T EigKep=  6.00D-04  NBF=   148
 NBsUse=   148 1.00D-06 EigRej= -1.00D+00 NBFU=   148
 ExpMin= 9.52D-02 ExpMax= 3.55D+04 ExpMxC= 1.21D+03 IAcc=3 IRadAn=         5 AccDes= 0.00D+00
 Harris functional with IExCor= 1009 and IRadAn=       5 diagonalized for initial guess.
 HarFok:  IExCor= 1009 AccDes= 0.00D+00 IRadAn=         5 IDoV= 1 UseB2=F ITyADJ=14
 ICtDFT=  3500011 ScaDFX=  1.000000  1.000000  1.000000  1.000000
 FoFCou: FMM=F IPFlag=           0 FMFlag=      100000 FMFlg1=           0
         NFxFlg=           0 DoJE=T BraDBF=F KetDBF=T FulRan=T
         wScrn=  0.000000 ICntrl=       500 IOpCl=  0 I1Cent=   200000004 NGrid=           0
         NMat0=    1 NMatS0=      1 NMatT0=    0 NMatD0=    1 NMtDS0=    0 NMtDT0=    0
 Petite list used in FoFCou.
 Keep R1 ints in memory in canonical form, NReq=64784419.
 Requested convergence on RMS density matrix=1.00D-08 within 128 cycles.
 Requested convergence on MAX density matrix=1.00D-06.
 Requested convergence on             energy=1.00D-06.
 No special actions if energy rises.
 Integral accuracy reduced to 1.0D-05 until final iterations.
 Initial convergence to 1.0D-05 achieved.  Increase integral accuracy.
 SCF Done:  E(RM06) =  -278.279422241     A.U. after   12 cycles
            NFock= 12  Conv=0.71D-08     -V/T= 2.0033
 DoSCS=F DFT=T ScalE2(SS,OS)=  1.000000  1.000000
 Range of M.O.s used for correlation:     1   148
 NBasis=   148 NAE=    17 NBE=    17 NFC=     0 NFV=     0
 NROrb=    148 NOA=    17 NOB=    17 NVA=   131 NVB=   131

 **** Warning!!: The largest alpha MO coefficient is  0.14253473D+02

   1 Symmetry operations used in ECPInt.
 ECPInt:  NShTT=    1830 NPrTT=    5560 LenC2=    1818 LenP2D=    4747.
 LDataN:  DoStor=T MaxTD1= 7 Len=  274
 Symmetrizing basis deriv contribution to polar:
 IMax=3 JMax=2 DiffMx= 0.00D+00
 G2DrvN: will do     9 centers at a time, making    1 passes.
 Calling FoFCou, ICntrl=  3107 FMM=F I1Cent=   0 AccDes= 0.00D+00.
 End of G2Drv F.D. properties file   721 does not exist.
 End of G2Drv F.D. properties file   722 does not exist.
 End of G2Drv F.D. properties file   788 does not exist.
          IDoAtm=11111111
          Differentiating once with respect to electric field.
                with respect to dipole field.
          Differentiating once with respect to nuclear coordinates.
 Keep R1 ints in memory in canonical form, NReq=64778234.
          There are    27 degrees of freedom in the 1st order CPHF.  IDoFFX=6 NUNeed=     3.
     24 vectors produced by pass  0 Test12= 8.25D-15 3.70D-09 XBig12= 1.34D+01 1.69D+00.
 AX will form    24 AO Fock derivatives at one time.
     24 vectors produced by pass  1 Test12= 8.25D-15 3.70D-09 XBig12= 1.43D+00 2.28D-01.
     24 vectors produced by pass  2 Test12= 8.25D-15 3.70D-09 XBig12= 1.43D-02 1.99D-02.
     24 vectors produced by pass  3 Test12= 8.25D-15 3.70D-09 XBig12= 1.12D-04 2.30D-03.
     24 vectors produced by pass  4 Test12= 8.25D-15 3.70D-09 XBig12= 4.69D-07 1.44D-04.
     24 vectors produced by pass  5 Test12= 8.25D-15 3.70D-09 XBig12= 1.43D-09 7.78D-06.
      9 vectors produced by pass  6 Test12= 8.25D-15 3.70D-09 XBig12= 4.59D-12 4.12D-07.
      3 vectors produced by pass  7 Test12= 8.25D-15 3.70D-09 XBig12= 1.18D-14 1.78D-08.
 InvSVY:  IOpt=1 It=  1 EMax= 8.88D-16
 Solved reduced A of dimension   156 with    27 vectors.
 Isotropic polarizability for W=    0.000000       26.79 Bohr**3.
 End of Minotr F.D. properties file   721 does not exist.
 End of Minotr F.D. properties file   722 does not exist.
 End of Minotr F.D. properties file   788 does not exist.

 **********************************************************************

            Population analysis using the SCF Density.

 **********************************************************************

 Orbital symmetries:
       Occupied  (A) (A) (A) (A) (A) (A) (A) (A) (A) (A) (A) (A)
                 (A) (A) (A) (A) (A)
       Virtual   (A) (A) (A) (A) (A) (A) (A) (A) (A) (A) (A) (A)
                 (A) (A) (A) (A) (A) (A) (A) (A) (A) (A) (A) (A)
                 (A) (A) (A) (A) (A) (A) (A) (A) (A) (A) (A) (A)
                 (A) (A) (A) (A) (A) (A) (A) (A) (A) (A) (A) (A)
                 (A) (A) (A) (A) (A) (A) (A) (A) (A) (A) (A) (A)
                 (A) (A) (A) (A) (A) (A) (A) (A) (A) (A) (A) (A)
                 (A) (A) (A) (A) (A) (A) (A) (A) (A) (A) (A) (A)
                 (A) (A) (A) (A) (A) (A) (A) (A) (A) (A) (A) (A)
                 (A) (A) (A) (A) (A) (A) (A) (A) (A) (A) (A) (A)
                 (A) (A) (A) (A) (A) (A) (A) (A) (A) (A) (A) (A)
                 (A) (A) (A) (A) (A) (A) (A) (A) (A) (A) (A)
 The electronic state is 1-A.
 Alpha  occ. eigenvalues --  -24.76559 -24.76559 -10.32448 -10.32421  -1.25150
 Alpha  occ. eigenvalues --   -1.24074  -0.78551  -0.66225  -0.54777  -0.54702
 Alpha  occ. eigenvalues --   -0.52658  -0.49311  -0.48807  -0.42511  -0.37009
 Alpha  occ. eigenvalues --   -0.36795  -0.35168
 Alpha virt. eigenvalues --    0.04108   0.06367   0.08245   0.08934   0.10001
 Alpha virt. eigenvalues --    0.10951   0.15446   0.19771   0.27799   0.28747
 Alpha virt. eigenvalues --    0.29890   0.31762   0.33528   0.33590   0.37489
 Alpha virt. eigenvalues --    0.38757   0.39830   0.42489   0.45730   0.53745
 Alpha virt. eigenvalues --    0.55590   0.61899   0.63415   0.70298   0.74425
 Alpha virt. eigenvalues --    0.75001   0.76107   0.78889   0.82716   0.87186
 Alpha virt. eigenvalues --    0.89946   0.96056   1.00852   1.01627   1.07091
 Alpha virt. eigenvalues --    1.09854   1.17737   1.40822   1.43433   1.44634
 Alpha virt. eigenvalues --    1.49879   1.55092   1.57809   1.64442   1.66896
 Alpha virt. eigenvalues --    1.69758   1.76306   1.82426   1.86330   1.90963
 Alpha virt. eigenvalues --    1.93557   1.97049   2.02503   2.16441   2.18978
 Alpha virt. eigenvalues --    2.20486   2.29211   2.31845   2.32422   2.34077
 Alpha virt. eigenvalues --    2.38250   2.39546   2.46159   2.51420   2.56830
 Alpha virt. eigenvalues --    2.62625   2.69743   2.73984   2.75799   2.77924
 Alpha virt. eigenvalues --    2.86291   2.88812   2.95388   2.97014   3.05514
 Alpha virt. eigenvalues --    3.08409   3.13025   3.13506   3.14860   3.20252
 Alpha virt. eigenvalues --    3.21456   3.27814   3.30754   3.40632   3.41255
 Alpha virt. eigenvalues --    3.58991   3.61333   3.69431   3.72512   3.73437
 Alpha virt. eigenvalues --    3.76342   3.82565   3.88019   3.90319   3.94130
 Alpha virt. eigenvalues --    4.04893   4.06484   4.16837   4.22824   4.26292
 Alpha virt. eigenvalues --    4.64589   5.19720   5.20061   6.91289   6.91363
 Alpha virt. eigenvalues --    6.91939   6.92100   7.00270   7.00675   7.02272
 Alpha virt. eigenvalues --    7.03244   7.25310   7.28525   7.30414   7.30733
 Alpha virt. eigenvalues --    7.34396   7.34437   8.43110   8.45817   8.47830
 Alpha virt. eigenvalues --    8.48283   8.83466   8.88089   8.91230   8.91516
 Alpha virt. eigenvalues --    9.06641   9.08247  22.24874  22.39122  57.06174
 Alpha virt. eigenvalues --   57.13158
          Condensed to atoms (all electrons):
               1          2          3          4          5          6
     1  C    4.730863   0.281123   0.407701   0.215402   0.376725  -0.043443
     2  C    0.281123   4.730854  -0.052477  -0.043442  -0.033644   0.215403
     3  H    0.407701  -0.052477   0.648052  -0.042461  -0.051997   0.001912
     4  F    0.215402  -0.043442  -0.042461   9.171891  -0.042499   0.001215
     5  H    0.376725  -0.033644  -0.051997  -0.042499   0.681099   0.004337
     6  F   -0.043443   0.215403   0.001912   0.001215   0.004337   9.171890
     7  H   -0.033645   0.376727  -0.004945   0.004337   0.004727  -0.042499
     8  H   -0.052477   0.407701   0.011810   0.001912  -0.004945  -0.042460
               7          8
     1  C   -0.033645  -0.052477
     2  C    0.376727   0.407701
     3  H   -0.004945   0.011810
     4  F    0.004337   0.001912
     5  H    0.004727  -0.004945
     6  F   -0.042499  -0.042460
     7  H    0.681100  -0.051998
     8  H   -0.051998   0.648054
 Mulliken charges:
               1
     1  C    0.117751
     2  C    0.117756
     3  H    0.082405
     4  F   -0.266355
     5  H    0.066198
     6  F   -0.266354
     7  H    0.066197
     8  H    0.082403
 Sum of Mulliken charges =  -0.00000
 Mulliken charges with hydrogens summed into heavy atoms:
               1
     1  C    0.266353
     2  C    0.266356
     4  F   -0.266355
     6  F   -0.266354
 APT charges:
               1
     1  C    0.576129
     2  C    0.576126
     3  H   -0.024580
     4  F   -0.522085
     5  H   -0.029464
     6  F   -0.522082
     7  H   -0.029465
     8  H   -0.024579
 Sum of APT charges =  -0.00000
 APT charges with hydrogens summed into heavy atoms:
               1
     1  C    0.522084
     2  C    0.522083
     4  F   -0.522085
     6  F   -0.522082
 Electronic spatial extent (au):  <R**2>=            279.4386
 Charge=             -0.0000 electrons
 Dipole moment (field-independent basis, Debye):
    X=              0.0000    Y=              2.4693    Z=             -0.0000  Tot=              2.4693
 Quadrupole moment (field-independent basis, Debye-Ang):
   XX=            -25.8653   YY=            -22.4954   ZZ=            -21.5714
   XY=             -0.0000   XZ=             -1.3446   YZ=             -0.0000
 Traceless Quadrupole moment (field-independent basis, Debye-Ang):
   XX=             -2.5546   YY=              0.8153   ZZ=              1.7393
   XY=             -0.0000   XZ=             -1.3446   YZ=             -0.0000
 Octapole moment (field-independent basis, Debye-Ang**2):
  XXX=              0.0001  YYY=             -5.8964  ZZZ=             -0.0000  XYY=             -0.0000
  XXY=              1.7546  XXZ=              0.0000  XZZ=             -0.0000  YZZ=             -2.3928
  YYZ=             -0.0000  XYZ=              0.3290
 Hexadecapole moment (field-independent basis, Debye-Ang**3):
 XXXX=           -190.0933 YYYY=            -68.3237 ZZZZ=            -40.8267 XXXY=             -0.0001
 XXXZ=              2.4613 YYYX=             -0.0001 YYYZ=             -0.0000 ZZZX=              2.1468
 ZZZY=             -0.0001 XXYY=            -40.6040 XXZZ=            -37.7873 YYZZ=            -19.6382
 XXYZ=              0.0000 YYXZ=              1.8042 ZZXY=             -0.0000
 N-N= 1.290619055607D+02 E-N=-9.176909538758D+02  KE= 2.773756432167D+02
  Exact polarizability:      27.499       0.000      26.573      -0.529      -0.000      26.295
 Approx polarizability:      32.513       0.000      34.779       0.704      -0.000      33.708
   1 Symmetry operations used in ECPInt.
 ECPInt:  NShTT=    1830 NPrTT=    5560 LenC2=    1818 LenP2D=    4747.
 LDataN:  DoStor=T MaxTD1= 8 Len=  415
 Calling FoFJK, ICntrl=    100127 FMM=F ISym2X=0 I1Cent= 0 IOpClX= 0 NMat=1 NMatS=1 NMatT=0.
 ***** Axes restored to original set *****
 -------------------------------------------------------------------
 Center     Atomic                   Forces (Hartrees/Bohr)
 Number     Number              X              Y              Z
 -------------------------------------------------------------------
      1        6           0.008309629   -0.001409254   -0.004692885
      2        6          -0.008288281    0.003589160    0.003414126
      3        1           0.002316680    0.003034398    0.000744590
      4        9          -0.002830126   -0.008024128    0.000342850
      5        1           0.001521932    0.003875351   -0.000475377
      6        9           0.002685985   -0.004216881    0.006895796
      7        1          -0.001449319    0.002306511   -0.003181758
      8        1          -0.002266500    0.000844842   -0.003047342
 -------------------------------------------------------------------
 Cartesian Forces:  Max     0.008309629 RMS     0.004065742
 FormGI is forming the generalized inverse of G from B-inverse, IUseBI=4.

 GradGradGradGradGradGradGradGradGradGradGradGradGradGradGradGradGradGrad
 Berny optimization.
 Internal  Forces:  Max     0.009484775 RMS     0.003529968
 Search for a local minimum.
 Step number   1 out of a maximum of   38
 All quantities printed in internal units (Hartrees-Bohrs-Radians)
 Mixed Optimization -- RFO/linear search
 Second derivative matrix not updated -- analytic derivatives used.
 ITU=  0
     Eigenvalues ---    0.00302   0.04712   0.04862   0.06845   0.07223
     Eigenvalues ---    0.11820   0.11931   0.14215   0.14553   0.22172
     Eigenvalues ---    0.26347   0.30168   0.33104   0.33200   0.33541
     Eigenvalues ---    0.33554   0.42589   0.43856
 RFO step:  Lambda=-1.59314234D-03 EMin= 3.02086034D-03
 Linear search not attempted -- first point.
 Iteration  1 RMS(Cart)=  0.02952674 RMS(Int)=  0.00061342
 Iteration  2 RMS(Cart)=  0.00059679 RMS(Int)=  0.00035297
 Iteration  3 RMS(Cart)=  0.00000030 RMS(Int)=  0.00035297
 Variable       Old X    -DE/DX   Delta X   Delta X   Delta X     New X
                                 (Linear)    (Quad)   (Total)
    R1        2.85813  -0.00948   0.00000  -0.03632  -0.03632   2.82180
    R2        2.06557   0.00103   0.00000   0.00417   0.00417   2.06974
    R3        2.57284   0.00845   0.00000   0.01223   0.01223   2.58507
    R4        2.06563   0.00187   0.00000   0.00571   0.00571   2.07133
    R5        2.57283   0.00845   0.00000   0.01224   0.01224   2.58507
    R6        2.06564   0.00186   0.00000   0.00570   0.00570   2.07133
    R7        2.06554   0.00104   0.00000   0.00420   0.00420   2.06974
    A1        1.94254  -0.00410   0.00000  -0.01872  -0.01914   1.92339
    A2        1.90950   0.00165   0.00000   0.02219   0.02232   1.93182
    A3        1.93833  -0.00273   0.00000  -0.02638  -0.02677   1.91156
    A4        1.88035   0.00182   0.00000   0.01467   0.01476   1.89510
    A5        1.91470   0.00134   0.00000  -0.01318  -0.01411   1.90059
    A6        1.87631   0.00239   0.00000   0.02444   0.02460   1.90091
    A7        1.90949   0.00165   0.00000   0.02220   0.02233   1.93182
    A8        1.93833  -0.00273   0.00000  -0.02637  -0.02677   1.91156
    A9        1.94253  -0.00410   0.00000  -0.01872  -0.01914   1.92339
   A10        1.87631   0.00239   0.00000   0.02443   0.02460   1.90091
   A11        1.88036   0.00182   0.00000   0.01465   0.01474   1.89510
   A12        1.91470   0.00134   0.00000  -0.01318  -0.01411   1.90059
    D1        0.81825   0.00198   0.00000   0.05147   0.05118   0.86943
    D2       -1.25019  -0.00034   0.00000   0.02346   0.02348  -1.22671
    D3        2.89428   0.00277   0.00000   0.07227   0.07171   2.96599
    D4       -1.25776   0.00120   0.00000   0.03067   0.03063  -1.22713
    D5        2.95698  -0.00112   0.00000   0.00265   0.00293   2.95991
    D6        0.81826   0.00198   0.00000   0.05146   0.05117   0.86943
    D7        2.95698  -0.00112   0.00000   0.00266   0.00293   2.95991
    D8        0.88854  -0.00344   0.00000  -0.02536  -0.02477   0.86377
    D9       -1.25018  -0.00034   0.00000   0.02345   0.02347  -1.22671
         Item               Value     Threshold  Converged?
 Maximum Force            0.009485     0.000450     NO 
 RMS     Force            0.003530     0.000300     NO 
 Maximum Displacement     0.077232     0.001800     NO 
 RMS     Displacement     0.029773     0.001200     NO 
 Predicted change in Energy=-8.124798D-04
 GradGradGradGradGradGradGradGradGradGradGradGradGradGradGradGradGradGrad

                          Input orientation:                          
 ---------------------------------------------------------------------
 Center     Atomic      Atomic             Coordinates (Angstroms)
 Number     Number       Type             X           Y           Z
 ---------------------------------------------------------------------
      1          6           0       -0.605642    1.067143   -0.013404
      2          6           0        0.887067    1.035369   -0.037045
      3          1           0       -0.959623    1.518392    0.919691
      4          9           0       -1.117438   -0.197982   -0.107400
      5          1           0       -0.972791    1.662548   -0.857285
      6          9           0        1.377389    0.499257    1.122040
      7          1           0        1.273469    2.055066   -0.148189
      8          1           0        1.239198    0.428958   -0.878390
 ---------------------------------------------------------------------
                    Distance matrix (angstroms):
                    1          2          3          4          5
     1  C    0.000000
     2  C    1.493235   0.000000
     3  H    1.095260   2.135162   0.000000
     4  F    1.367959   2.354601   2.006430   0.000000
     5  H    1.096103   2.127256   1.782862   2.011175   0.000000
     6  F    2.354600   1.367959   2.557578   2.867373   3.285471
     7  H    2.127256   1.096103   2.532802   3.285472   2.388005
     8  H    2.135163   1.095260   3.042167   2.557580   2.532802
                    6          7          8
     6  F    0.000000
     7  H    2.011175   0.000000
     8  H    2.006430   1.782862   0.000000
 Stoichiometry    C2H4F2
 Framework group  C1[X(C2H4F2)]
 Deg. of freedom    18
 Full point group                 C1      NOp   1
 Largest Abelian subgroup         C1      NOp   1
 Largest concise Abelian subgroup C1      NOp   1
                         Standard orientation:                         
 ---------------------------------------------------------------------
 Center     Atomic      Atomic             Coordinates (Angstroms)
 Number     Number       Type             X           Y           Z
 ---------------------------------------------------------------------
      1          6           0       -0.681269    0.504059    0.305466
      2          6           0        0.681269    0.504059   -0.305466
      3          1           0       -0.607475    0.413924    1.394513
      4          9           0       -1.423665   -0.542284   -0.169220
      5          1           0       -1.192455    1.442276    0.060763
      6          9           0        1.423664   -0.542284    0.169220
      7          1           0        1.192456    1.442275   -0.060762
      8          1           0        0.607477    0.413925   -1.394513
 ---------------------------------------------------------------------
 Rotational constants (GHZ):          17.6350779           5.1039889           4.4609155
 Standard basis: def2TZVP (5D, 7F)
 There are   168 symmetry adapted cartesian basis functions of A   symmetry.
 There are   148 symmetry adapted basis functions of A   symmetry.
   148 basis functions,   236 primitive gaussians,   168 cartesian basis functions
    17 alpha electrons       17 beta electrons
       nuclear repulsion energy       128.8213422488 Hartrees.
 NAtoms=    8 NActive=    8 NUniq=    8 SFac= 1.00D+00 NAtFMM=   60 NAOKFM=F Big=F
 Integral buffers will be    131072 words long.
 Raffenetti 2 integral format.
 Two-electron integral symmetry is turned on.
 One-electron integrals computed using PRISM.
   1 Symmetry operations used in ECPInt.
 ECPInt:  NShTT=    1830 NPrTT=    5560 LenC2=    1816 LenP2D=    4745.
 LDataN:  DoStor=T MaxTD1= 6 Len=  172
 NBasis=   148 RedAO= T EigKep=  5.26D-04  NBF=   148
 NBsUse=   148 1.00D-06 EigRej= -1.00D+00 NBFU=   148
 Initial guess from the checkpoint file:  "checkpoint.chk"
 B after Tr=    -0.000000   -0.000000    0.000000
         Rot=    0.999998    0.000001   -0.001962   -0.000001 Ang=   0.22 deg.
 ExpMin= 9.52D-02 ExpMax= 3.55D+04 ExpMxC= 1.21D+03 IAcc=3 IRadAn=         5 AccDes= 0.00D+00
 Harris functional with IExCor= 1009 and IRadAn=       5 diagonalized for initial guess.
 HarFok:  IExCor= 1009 AccDes= 0.00D+00 IRadAn=         5 IDoV= 1 UseB2=F ITyADJ=14
 ICtDFT=  3500011 ScaDFX=  1.000000  1.000000  1.000000  1.000000
 FoFCou: FMM=F IPFlag=           0 FMFlag=      100000 FMFlg1=           0
         NFxFlg=           0 DoJE=T BraDBF=F KetDBF=T FulRan=T
         wScrn=  0.000000 ICntrl=       500 IOpCl=  0 I1Cent=   200000004 NGrid=           0
         NMat0=    1 NMatS0=      1 NMatT0=    0 NMatD0=    1 NMtDS0=    0 NMtDT0=    0
 Petite list used in FoFCou.
 Keep R1 ints in memory in canonical form, NReq=64784419.
 Requested convergence on RMS density matrix=1.00D-08 within 128 cycles.
 Requested convergence on MAX density matrix=1.00D-06.
 Requested convergence on             energy=1.00D-06.
 No special actions if energy rises.
 Integral accuracy reduced to 1.0D-05 until final iterations.
 Initial convergence to 1.0D-05 achieved.  Increase integral accuracy.
 SCF Done:  E(RM06) =  -278.280220431     A.U. after   10 cycles
            NFock= 10  Conv=0.54D-08     -V/T= 2.0033
 DoSCS=F DFT=T ScalE2(SS,OS)=  1.000000  1.000000
 Range of M.O.s used for correlation:     1   148
 NBasis=   148 NAE=    17 NBE=    17 NFC=     0 NFV=     0
 NROrb=    148 NOA=    17 NOB=    17 NVA=   131 NVB=   131

 **** Warning!!: The largest alpha MO coefficient is  0.15109774D+02

   1 Symmetry operations used in ECPInt.
 ECPInt:  NShTT=    1830 NPrTT=    5560 LenC2=    1816 LenP2D=    4745.
 LDataN:  DoStor=T MaxTD1= 7 Len=  274
 Symmetrizing basis deriv contribution to polar:
 IMax=3 JMax=2 DiffMx= 0.00D+00
 G2DrvN: will do     9 centers at a time, making    1 passes.
 Calling FoFCou, ICntrl=  3107 FMM=F I1Cent=   0 AccDes= 0.00D+00.
 End of G2Drv F.D. properties file   721 does not exist.
 End of G2Drv F.D. properties file   722 does not exist.
 End of G2Drv F.D. properties file   788 does not exist.
          IDoAtm=11111111
          Differentiating once with respect to electric field.
                with respect to dipole field.
          Differentiating once with respect to nuclear coordinates.
 Keep R1 ints in memory in canonical form, NReq=64778234.
          There are    27 degrees of freedom in the 1st order CPHF.  IDoFFX=6 NUNeed=     3.
     24 vectors produced by pass  0 Test12= 8.25D-15 3.70D-09 XBig12= 1.37D+01 1.67D+00.
 AX will form    24 AO Fock derivatives at one time.
     24 vectors produced by pass  1 Test12= 8.25D-15 3.70D-09 XBig12= 1.48D+00 2.34D-01.
     24 vectors produced by pass  2 Test12= 8.25D-15 3.70D-09 XBig12= 1.55D-02 1.96D-02.
     24 vectors produced by pass  3 Test12= 8.25D-15 3.70D-09 XBig12= 1.27D-04 2.06D-03.
     24 vectors produced by pass  4 Test12= 8.25D-15 3.70D-09 XBig12= 5.67D-07 1.67D-04.
     24 vectors produced by pass  5 Test12= 8.25D-15 3.70D-09 XBig12= 1.70D-09 8.83D-06.
     10 vectors produced by pass  6 Test12= 8.25D-15 3.70D-09 XBig12= 5.00D-12 3.77D-07.
      3 vectors produced by pass  7 Test12= 8.25D-15 3.70D-09 XBig12= 1.31D-14 1.81D-08.
 InvSVY:  IOpt=1 It=  1 EMax= 1.78D-15
 Solved reduced A of dimension   157 with    27 vectors.
 Isotropic polarizability for W=    0.000000       26.84 Bohr**3.
 End of Minotr F.D. properties file   721 does not exist.
 End of Minotr F.D. properties file   722 does not exist.
 End of Minotr F.D. properties file   788 does not exist.
   1 Symmetry operations used in ECPInt.
 ECPInt:  NShTT=    1830 NPrTT=    5560 LenC2=    1816 LenP2D=    4745.
 LDataN:  DoStor=T MaxTD1= 8 Len=  415
 Calling FoFJK, ICntrl=    100127 FMM=F ISym2X=0 I1Cent= 0 IOpClX= 0 NMat=1 NMatS=1 NMatT=0.
 ***** Axes restored to original set *****
 -------------------------------------------------------------------
 Center     Atomic                   Forces (Hartrees/Bohr)
 Number     Number              X              Y              Z
 -------------------------------------------------------------------
      1        6          -0.000393420    0.000093246    0.000026581
      2        6           0.000394675    0.000014861   -0.000090318
      3        1          -0.000112565    0.000111484   -0.000021317
      4        9          -0.000077623   -0.000211561    0.000067121
      5        1          -0.000079187    0.000048012   -0.000016174
      6        9           0.000073249   -0.000162155    0.000153899
      7        1           0.000080136    0.000035816   -0.000033452
      8        1           0.000114735    0.000070297   -0.000086339
 -------------------------------------------------------------------
 Cartesian Forces:  Max     0.000394675 RMS     0.000145450
 FormGI is forming the generalized inverse of G from B-inverse, IUseBI=4.

 GradGradGradGradGradGradGradGradGradGradGradGradGradGradGradGradGradGrad
 Berny optimization.
 Using GEDIIS/GDIIS optimizer.
 Internal  Forces:  Max     0.000664254 RMS     0.000152115
 Search for a local minimum.
 Step number   2 out of a maximum of   38
 All quantities printed in internal units (Hartrees-Bohrs-Radians)
 Mixed Optimization -- En-DIIS/RFO-DIIS
 Second derivative matrix not updated -- analytic derivatives used.
 DE= -7.98D-04 DEPred=-8.12D-04 R= 9.82D-01
 TightC=F SS=  1.41D+00  RLast= 1.41D-01 DXNew= 5.0454D-01 4.2400D-01
 Trust test= 9.82D-01 RLast= 1.41D-01 DXMaxT set to 4.24D-01
 ITU=  1  0
 Use linear search instead of GDIIS.
     Eigenvalues ---    0.00352   0.04803   0.04923   0.06546   0.06959
     Eigenvalues ---    0.12030   0.12307   0.14633   0.15063   0.22417
     Eigenvalues ---    0.25661   0.31990   0.32594   0.32729   0.33058
     Eigenvalues ---    0.33127   0.40800   0.42210
 RFO step:  Lambda=-5.99913437D-06 EMin= 3.52085599D-03
 Quintic linear search produced a step of -0.00640.
 Iteration  1 RMS(Cart)=  0.00553194 RMS(Int)=  0.00001515
 Iteration  2 RMS(Cart)=  0.00001551 RMS(Int)=  0.00000224
 Iteration  3 RMS(Cart)=  0.00000000 RMS(Int)=  0.00000224
 Variable       Old X    -DE/DX   Delta X   Delta X   Delta X     New X
                                 (Linear)    (Quad)   (Total)
    R1        2.82180   0.00066   0.00023   0.00170   0.00193   2.82374
    R2        2.06974   0.00006  -0.00003   0.00018   0.00015   2.06989
    R3        2.58507   0.00022  -0.00008   0.00036   0.00028   2.58535
    R4        2.07133   0.00007  -0.00004   0.00027   0.00023   2.07156
    R5        2.58507   0.00022  -0.00008   0.00036   0.00028   2.58535
    R6        2.07133   0.00007  -0.00004   0.00026   0.00023   2.07156
    R7        2.06974   0.00006  -0.00003   0.00018   0.00015   2.06989
    A1        1.92339   0.00012   0.00012   0.00094   0.00107   1.92446
    A2        1.93182  -0.00003  -0.00014  -0.00043  -0.00057   1.93125
    A3        1.91156   0.00007   0.00017  -0.00005   0.00012   1.91168
    A4        1.89510  -0.00005  -0.00009   0.00008  -0.00002   1.89509
    A5        1.90059  -0.00012   0.00009  -0.00110  -0.00100   1.89959
    A6        1.90091   0.00001  -0.00016   0.00055   0.00039   1.90130
    A7        1.93182  -0.00003  -0.00014  -0.00043  -0.00057   1.93125
    A8        1.91156   0.00007   0.00017  -0.00005   0.00012   1.91168
    A9        1.92339   0.00012   0.00012   0.00094   0.00107   1.92446
   A10        1.90091   0.00001  -0.00016   0.00055   0.00039   1.90130
   A11        1.89510  -0.00005  -0.00009   0.00008  -0.00002   1.89509
   A12        1.90059  -0.00012   0.00009  -0.00110  -0.00100   1.89959
    D1        0.86943   0.00006  -0.00033   0.01169   0.01136   0.88079
    D2       -1.22671   0.00003  -0.00015   0.01132   0.01116  -1.21555
    D3        2.96599   0.00006  -0.00046   0.01212   0.01166   2.97765
    D4       -1.22713   0.00006  -0.00020   0.01126   0.01106  -1.21607
    D5        2.95991   0.00003  -0.00002   0.01088   0.01086   2.97078
    D6        0.86943   0.00006  -0.00033   0.01169   0.01136   0.88079
    D7        2.95991   0.00003  -0.00002   0.01088   0.01086   2.97078
    D8        0.86377  -0.00001   0.00016   0.01051   0.01067   0.87444
    D9       -1.22671   0.00003  -0.00015   0.01132   0.01116  -1.21555
         Item               Value     Threshold  Converged?
 Maximum Force            0.000664     0.000450     NO 
 RMS     Force            0.000152     0.000300     YES
 Maximum Displacement     0.013133     0.001800     NO 
 RMS     Displacement     0.005532     0.001200     NO 
 Predicted change in Energy=-2.985300D-06
 GradGradGradGradGradGradGradGradGradGradGradGradGradGradGradGradGradGrad

                          Input orientation:                          
 ---------------------------------------------------------------------
 Center     Atomic      Atomic             Coordinates (Angstroms)
 Number     Number       Type             X           Y           Z
 ---------------------------------------------------------------------
      1          6           0       -0.606151    1.067299   -0.013472
      2          6           0        0.887579    1.035496   -0.037143
      3          1           0       -0.961180    1.523829    0.916743
      4          9           0       -1.117181   -0.198797   -0.100450
      5          1           0       -0.973614    1.658211   -0.860526
      6          9           0        1.377046    0.492779    1.119403
      7          1           0        1.274249    2.055802   -0.142818
      8          1           0        1.240881    0.434132   -0.881717
 ---------------------------------------------------------------------
                    Distance matrix (angstroms):
                    1          2          3          4          5
     1  C    0.000000
     2  C    1.494256   0.000000
     3  H    1.095338   2.136885   0.000000
     4  F    1.368107   2.355112   2.006604   0.000000
     5  H    1.096224   2.128327   1.782386   2.011668   0.000000
     6  F    2.355112   1.368107   2.563481   2.861379   3.286937
     7  H    2.128327   1.096224   2.530377   3.286937   2.392921
     8  H    2.136885   1.095338   3.044827   2.563481   2.530377
                    6          7          8
     6  F    0.000000
     7  H    2.011668   0.000000
     8  H    2.006604   1.782386   0.000000
 Stoichiometry    C2H4F2
 Framework group  C2[X(C2H4F2)]
 Deg. of freedom    10
 Full point group                 C2      NOp   2
 Omega: Change in point group or standard orientation.

 Old FWG=C01  [X(C2H4F2)]
 New FWG=C02  [X(C2H4F2)]
 Largest Abelian subgroup         C2      NOp   2
 Largest concise Abelian subgroup C2      NOp   2
                         Standard orientation:                         
 ---------------------------------------------------------------------
 Center     Atomic      Atomic             Coordinates (Angstroms)
 Number     Number       Type             X           Y           Z
 ---------------------------------------------------------------------
      1          6           0        0.259232    0.700714   -0.506168
      2          6           0       -0.259232   -0.700714   -0.506168
      3          1           0        1.351334    0.701170   -0.422034
      4          9           0       -0.259232    1.407008    0.544575
      5          1           0       -0.023886    1.196222   -1.442129
      6          9           0        0.259232   -1.407008    0.544575
      7          1           0        0.023886   -1.196222   -1.442129
      8          1           0       -1.351334   -0.701170   -0.422034
 ---------------------------------------------------------------------
 Rotational constants (GHZ):          17.5654817           5.1188706           4.4644693
 Standard basis: def2TZVP (5D, 7F)
 There are    84 symmetry adapted cartesian basis functions of A   symmetry.
 There are    84 symmetry adapted cartesian basis functions of B   symmetry.
 There are    74 symmetry adapted basis functions of A   symmetry.
 There are    74 symmetry adapted basis functions of B   symmetry.
   148 basis functions,   236 primitive gaussians,   168 cartesian basis functions
    17 alpha electrons       17 beta electrons
       nuclear repulsion energy       128.8176979626 Hartrees.
 NAtoms=    8 NActive=    8 NUniq=    4 SFac= 4.00D+00 NAtFMM=   60 NAOKFM=F Big=F
 Integral buffers will be    131072 words long.
 Raffenetti 2 integral format.
 Two-electron integral symmetry is turned on.
 One-electron integrals computed using PRISM.
   2 Symmetry operations used in ECPInt.
 ECPInt:  NShTT=    1830 NPrTT=    5560 LenC2=    1816 LenP2D=    4745.
 LDataN:  DoStor=T MaxTD1= 6 Len=  172
 NBasis=   148 RedAO= T EigKep=  5.29D-04  NBF=    74    74
 NBsUse=   148 1.00D-06 EigRej= -1.00D+00 NBFU=    74    74
 Initial guess from the checkpoint file:  "checkpoint.chk"
 B after Tr=    -0.000000    0.000000    0.000000
         Rot=    0.515999    0.515999   -0.483472    0.483472 Ang= 117.87 deg.
 Initial guess orbital symmetries:
       Occupied  (A) (B) (A) (B) (A) (B) (A) (B) (A) (B) (A) (B)
                 (A) (B) (B) (A) (A)
       Virtual   (A) (B) (A) (B) (A) (B) (B) (A) (A) (A) (B) (B)
                 (A) (B) (B) (B) (A) (A) (B) (A) (B) (A) (B) (A)
                 (B) (A) (B) (A) (B) (A) (B) (A) (B) (A) (B) (B)
                 (A) (A) (B) (A) (B) (A) (B) (B) (A) (A) (B) (A)
                 (B) (B) (A) (B) (A) (A) (B) (A) (A) (B) (B) (A)
                 (A) (B) (A) (B) (A) (B) (A) (A) (B) (B) (B) (A)
                 (A) (B) (B) (A) (B) (A) (B) (A) (A) (B) (B) (A)
                 (B) (A) (B) (A) (B) (B) (A) (A) (B) (B) (A) (A)
                 (B) (A) (B) (A) (B) (B) (A) (A) (B) (A) (B) (A)
                 (A) (B) (B) (A) (B) (A) (B) (A) (B) (A) (B) (B)
                 (A) (A) (B) (B) (A) (A) (B) (A) (B) (B) (A)
 Keep R1 ints in memory in symmetry-blocked form, NReq=91216573.
 Requested convergence on RMS density matrix=1.00D-08 within 128 cycles.
 Requested convergence on MAX density matrix=1.00D-06.
 Requested convergence on             energy=1.00D-06.
 No special actions if energy rises.
 SCF Done:  E(RM06) =  -278.280226238     A.U. after    7 cycles
            NFock=  7  Conv=0.60D-08     -V/T= 2.0034
 DoSCS=F DFT=T ScalE2(SS,OS)=  1.000000  1.000000
 Range of M.O.s used for correlation:     1   148
 NBasis=   148 NAE=    17 NBE=    17 NFC=     0 NFV=     0
 NROrb=    148 NOA=    17 NOB=    17 NVA=   131 NVB=   131

 **** Warning!!: The largest alpha MO coefficient is  0.15065161D+02

   2 Symmetry operations used in ECPInt.
 ECPInt:  NShTT=    1830 NPrTT=    5560 LenC2=    1816 LenP2D=    4745.
 LDataN:  DoStor=T MaxTD1= 7 Len=  274
 Symmetrizing basis deriv contribution to polar:
 IMax=3 JMax=2 DiffMx= 0.00D+00
 G2DrvN: will do     9 centers at a time, making    1 passes.
 Calling FoFCou, ICntrl=  3107 FMM=F I1Cent=   0 AccDes= 0.00D+00.
 End of G2Drv F.D. properties file   721 does not exist.
 End of G2Drv F.D. properties file   722 does not exist.
 End of G2Drv F.D. properties file   788 does not exist.
          IDoAtm=11111111
          Differentiating once with respect to electric field.
                with respect to dipole field.
          Differentiating once with respect to nuclear coordinates.
 Keep R1 ints in memory in symmetry-blocked form, NReq=91220286.
          There are    15 degrees of freedom in the 1st order CPHF.  IDoFFX=4 NUNeed=    15.
     15 vectors produced by pass  0 Test12= 1.48D-14 6.67D-09 XBig12= 1.37D+01 1.64D+00.
 AX will form    15 AO Fock derivatives at one time.
     15 vectors produced by pass  1 Test12= 1.48D-14 6.67D-09 XBig12= 1.75D+00 2.57D-01.
     15 vectors produced by pass  2 Test12= 1.48D-14 6.67D-09 XBig12= 3.19D-02 3.33D-02.
     15 vectors produced by pass  3 Test12= 1.48D-14 6.67D-09 XBig12= 6.67D-04 4.12D-03.
     15 vectors produced by pass  4 Test12= 1.48D-14 6.67D-09 XBig12= 6.25D-06 3.83D-04.
     15 vectors produced by pass  5 Test12= 1.48D-14 6.67D-09 XBig12= 3.90D-08 2.79D-05.
      8 vectors produced by pass  6 Test12= 1.48D-14 6.67D-09 XBig12= 1.41D-10 1.63D-06.
      3 vectors produced by pass  7 Test12= 1.48D-14 6.67D-09 XBig12= 5.44D-13 1.31D-07.
 InvSVY:  IOpt=1 It=  1 EMax= 8.88D-16
 Solved reduced A of dimension   101 with    15 vectors.
 Isotropic polarizability for W=    0.000000       26.84 Bohr**3.
 End of Minotr F.D. properties file   721 does not exist.
 End of Minotr F.D. properties file   722 does not exist.
 End of Minotr F.D. properties file   788 does not exist.
   2 Symmetry operations used in ECPInt.
 ECPInt:  NShTT=    1830 NPrTT=    5560 LenC2=    1816 LenP2D=    4745.
 LDataN:  DoStor=T MaxTD1= 8 Len=  415
 Calling FoFJK, ICntrl=    100127 FMM=F ISym2X=1 I1Cent= 0 IOpClX= 0 NMat=1 NMatS=1 NMatT=0.
 ***** Axes restored to original set *****
 -------------------------------------------------------------------
 Center     Atomic                   Forces (Hartrees/Bohr)
 Number     Number              X              Y              Z
 -------------------------------------------------------------------
      1        6          -0.000025040   -0.000008850   -0.000000322
      2        6           0.000024881   -0.000004423    0.000008171
      3        1          -0.000003402    0.000002068   -0.000000687
      4        9           0.000016952    0.000002878   -0.000010521
      5        1          -0.000009754    0.000001052    0.000006280
      6        9          -0.000016787    0.000010904    0.000002371
      7        1           0.000009705   -0.000005168   -0.000003846
      8        1           0.000003445    0.000001538   -0.000001446
 -------------------------------------------------------------------
 Cartesian Forces:  Max     0.000025040 RMS     0.000010262
 FormGI is forming the generalized inverse of G from B-inverse, IUseBI=4.

 GradGradGradGradGradGradGradGradGradGradGradGradGradGradGradGradGradGrad
 Berny optimization.
 Using GEDIIS/GDIIS optimizer.
 Internal  Forces:  Max     0.000025572 RMS     0.000011127
 Search for a local minimum.
 Step number   3 out of a maximum of   38
 All quantities printed in internal units (Hartrees-Bohrs-Radians)
 Mixed Optimization -- En-DIIS/RFO-DIIS
 Swapping is turned off.
 Second derivative matrix not updated -- analytic derivatives used.
 DE= -5.81D-06 DEPred=-2.99D-06 R= 1.95D+00
 TightC=F SS=  1.41D+00  RLast= 3.35D-02 DXNew= 7.1308D-01 1.0062D-01
 Trust test= 1.95D+00 RLast= 3.35D-02 DXMaxT set to 4.24D-01
 ITU=  1  1  0
     Eigenvalues ---    0.00358   0.04802   0.04926   0.06554   0.06983
     Eigenvalues ---    0.12032   0.12326   0.14634   0.15048   0.22443
     Eigenvalues ---    0.25687   0.31872   0.32578   0.32729   0.33035
     Eigenvalues ---    0.33110   0.40789   0.42168
 En-DIIS/RFO-DIIS/Sim-DIIS IScMMF=       -3 using points:     3    2
 RFO step:  Lambda=-4.61054008D-08.
 DidBck=F Rises=F RFO-DIIS coefs:    0.92817    0.07183
 Iteration  1 RMS(Cart)=  0.00042145 RMS(Int)=  0.00000009
 Iteration  2 RMS(Cart)=  0.00000009 RMS(Int)=  0.00000001
 ClnCor:  largest displacement from symmetrization is 1.59D-10 for atom     8.
 Variable       Old X    -DE/DX   Delta X   Delta X   Delta X     New X
                                 (Linear)    (Quad)   (Total)
    R1        2.82374   0.00002  -0.00014   0.00022   0.00008   2.82382
    R2        2.06989   0.00000  -0.00001   0.00002   0.00001   2.06990
    R3        2.58535  -0.00001  -0.00002   0.00001  -0.00001   2.58534
    R4        2.07156  -0.00000  -0.00002   0.00000  -0.00002   2.07155
    R5        2.58535  -0.00001  -0.00002   0.00001  -0.00001   2.58534
    R6        2.07156  -0.00000  -0.00002   0.00000  -0.00002   2.07155
    R7        2.06989   0.00000  -0.00001   0.00002   0.00001   2.06990
    A1        1.92446   0.00000  -0.00008   0.00001  -0.00007   1.92439
    A2        1.93125  -0.00003   0.00004  -0.00018  -0.00014   1.93111
    A3        1.91168   0.00002  -0.00001   0.00023   0.00022   1.91191
    A4        1.89509   0.00001   0.00000   0.00005   0.00005   1.89513
    A5        1.89959  -0.00001   0.00007  -0.00012  -0.00005   1.89953
    A6        1.90130   0.00000  -0.00003   0.00002  -0.00001   1.90128
    A7        1.93125  -0.00003   0.00004  -0.00018  -0.00014   1.93111
    A8        1.91168   0.00002  -0.00001   0.00023   0.00022   1.91191
    A9        1.92446   0.00000  -0.00008   0.00001  -0.00007   1.92439
   A10        1.90130   0.00000  -0.00003   0.00002  -0.00001   1.90128
   A11        1.89509   0.00001   0.00000   0.00005   0.00005   1.89513
   A12        1.89959  -0.00001   0.00007  -0.00012  -0.00005   1.89953
    D1        0.88079  -0.00000  -0.00082   0.00001  -0.00080   0.87998
    D2       -1.21555  -0.00000  -0.00080  -0.00004  -0.00084  -1.21639
    D3        2.97765  -0.00001  -0.00084  -0.00004  -0.00088   2.97677
    D4       -1.21607  -0.00000  -0.00079   0.00006  -0.00073  -1.21680
    D5        2.97078  -0.00000  -0.00078   0.00001  -0.00077   2.97000
    D6        0.88079  -0.00000  -0.00082   0.00001  -0.00080   0.87998
    D7        2.97078  -0.00000  -0.00078   0.00001  -0.00077   2.97000
    D8        0.87444  -0.00000  -0.00077  -0.00004  -0.00081   0.87363
    D9       -1.21555  -0.00000  -0.00080  -0.00004  -0.00084  -1.21639
         Item               Value     Threshold  Converged?
 Maximum Force            0.000026     0.000450     YES
 RMS     Force            0.000011     0.000300     YES
 Maximum Displacement     0.000922     0.001800     YES
 RMS     Displacement     0.000421     0.001200     YES
 Predicted change in Energy=-2.296492D-08
 Optimization completed.
    -- Stationary point found.
                           ----------------------------
                           !   Optimized Parameters   !
                           ! (Angstroms and Degrees)  !
 --------------------------                            --------------------------
 ! Name  Definition              Value          Derivative Info.                !
 --------------------------------------------------------------------------------
 ! R1    R(1,2)                  1.4943         -DE/DX =    0.0                 !
 ! R2    R(1,3)                  1.0953         -DE/DX =    0.0                 !
 ! R3    R(1,4)                  1.3681         -DE/DX =    0.0                 !
 ! R4    R(1,5)                  1.0962         -DE/DX =    0.0                 !
 ! R5    R(2,6)                  1.3681         -DE/DX =    0.0                 !
 ! R6    R(2,7)                  1.0962         -DE/DX =    0.0                 !
 ! R7    R(2,8)                  1.0953         -DE/DX =    0.0                 !
 ! A1    A(2,1,3)              110.2634         -DE/DX =    0.0                 !
 ! A2    A(2,1,4)              110.6523         -DE/DX =    0.0                 !
 ! A3    A(2,1,5)              109.5313         -DE/DX =    0.0                 !
 ! A4    A(3,1,4)              108.5804         -DE/DX =    0.0                 !
 ! A5    A(3,1,5)              108.8382         -DE/DX =    0.0                 !
 ! A6    A(4,1,5)              108.9362         -DE/DX =    0.0                 !
 ! A7    A(1,2,6)              110.6523         -DE/DX =    0.0                 !
 ! A8    A(1,2,7)              109.5313         -DE/DX =    0.0                 !
 ! A9    A(1,2,8)              110.2634         -DE/DX =    0.0                 !
 ! A10   A(6,2,7)              108.9362         -DE/DX =    0.0                 !
 ! A11   A(6,2,8)              108.5804         -DE/DX =    0.0                 !
 ! A12   A(7,2,8)              108.8382         -DE/DX =    0.0                 !
 ! D1    D(3,1,2,6)             50.4655         -DE/DX =    0.0                 !
 ! D2    D(3,1,2,7)            -69.6458         -DE/DX =    0.0                 !
 ! D3    D(3,1,2,8)            170.6069         -DE/DX =    0.0                 !
 ! D4    D(4,1,2,6)            -69.6759         -DE/DX =    0.0                 !
 ! D5    D(4,1,2,7)            170.2129         -DE/DX =    0.0                 !
 ! D6    D(4,1,2,8)             50.4655         -DE/DX =    0.0                 !
 ! D7    D(5,1,2,6)            170.2129         -DE/DX =    0.0                 !
 ! D8    D(5,1,2,7)             50.1016         -DE/DX =    0.0                 !
 ! D9    D(5,1,2,8)            -69.6458         -DE/DX =    0.0                 !
 --------------------------------------------------------------------------------
 GradGradGradGradGradGradGradGradGradGradGradGradGradGradGradGradGradGrad

                          Input orientation:                          
 ---------------------------------------------------------------------
 Center     Atomic      Atomic             Coordinates (Angstroms)
 Number     Number       Type             X           Y           Z
 ---------------------------------------------------------------------
      1          6           0       -0.606151    1.067299   -0.013472
      2          6           0        0.887579    1.035496   -0.037143
      3          1           0       -0.961180    1.523829    0.916743
      4          9           0       -1.117181   -0.198797   -0.100450
      5          1           0       -0.973614    1.658211   -0.860526
      6          9           0        1.377046    0.492779    1.119403
      7          1           0        1.274249    2.055802   -0.142818
      8          1           0        1.240881    0.434132   -0.881717
 ---------------------------------------------------------------------
                    Distance matrix (angstroms):
                    1          2          3          4          5
     1  C    0.000000
     2  C    1.494256   0.000000
     3  H    1.095338   2.136885   0.000000
     4  F    1.368107   2.355112   2.006604   0.000000
     5  H    1.096224   2.128327   1.782386   2.011668   0.000000
     6  F    2.355112   1.368107   2.563481   2.861379   3.286937
     7  H    2.128327   1.096224   2.530377   3.286937   2.392921
     8  H    2.136885   1.095338   3.044827   2.563481   2.530377
                    6          7          8
     6  F    0.000000
     7  H    2.011668   0.000000
     8  H    2.006604   1.782386   0.000000
 Stoichiometry    C2H4F2
 Framework group  C2[X(C2H4F2)]
 Deg. of freedom    10
 Full point group                 C2      NOp   2
 Largest Abelian subgroup         C2      NOp   2
 Largest concise Abelian subgroup C2      NOp   2
                         Standard orientation:                         
 ---------------------------------------------------------------------
 Center     Atomic      Atomic             Coordinates (Angstroms)
 Number     Number       Type             X           Y           Z
 ---------------------------------------------------------------------
      1          6           0        0.259232    0.700714   -0.506168
      2          6           0       -0.259232   -0.700714   -0.506168
      3          1           0        1.351334    0.701170   -0.422034
      4          9           0       -0.259232    1.407008    0.544575
      5          1           0       -0.023886    1.196222   -1.442129
      6          9           0        0.259232   -1.407008    0.544575
      7          1           0        0.023886   -1.196222   -1.442129
      8          1           0       -1.351334   -0.701170   -0.422034
 ---------------------------------------------------------------------
 Rotational constants (GHZ):          17.5654817           5.1188706           4.4644693

 **********************************************************************

            Population analysis using the SCF Density.

 **********************************************************************

 Orbital symmetries:
       Occupied  (A) (B) (A) (B) (A) (B) (A) (B) (A) (B) (A) (B)
                 (A) (B) (B) (A) (A)
       Virtual   (A) (B) (A) (B) (A) (B) (B) (A) (A) (A) (B) (B)
                 (A) (B) (B) (B) (A) (A) (B) (A) (B) (A) (B) (A)
                 (B) (A) (B) (A) (B) (A) (B) (A) (B) (A) (B) (B)
                 (A) (A) (B) (A) (B) (A) (B) (B) (A) (A) (B) (A)
                 (B) (B) (A) (B) (A) (A) (B) (A) (A) (B) (B) (A)
                 (A) (B) (A) (B) (A) (B) (A) (A) (B) (B) (B) (A)
                 (A) (B) (B) (A) (B) (A) (B) (A) (A) (B) (B) (A)
                 (B) (A) (B) (A) (B) (A) (B) (A) (B) (B) (A) (A)
                 (B) (A) (B) (A) (B) (B) (A) (A) (B) (A) (B) (A)
                 (A) (B) (B) (A) (B) (A) (B) (A) (B) (A) (B) (B)
                 (A) (A) (B) (A) (B) (A) (B) (A) (B) (B) (A)
 The electronic state is 1-A.
 Alpha  occ. eigenvalues --  -24.76671 -24.76671 -10.32516 -10.32486  -1.24943
 Alpha  occ. eigenvalues --   -1.23889  -0.79219  -0.65991  -0.54937  -0.54731
 Alpha  occ. eigenvalues --   -0.52590  -0.49186  -0.48543  -0.42526  -0.37278
 Alpha  occ. eigenvalues --   -0.36772  -0.35433
 Alpha virt. eigenvalues --    0.03799   0.06529   0.07978   0.08790   0.09931
 Alpha virt. eigenvalues --    0.10991   0.15725   0.19733   0.27248   0.28348
 Alpha virt. eigenvalues --    0.29577   0.31695   0.33385   0.33655   0.38270
 Alpha virt. eigenvalues --    0.38421   0.39897   0.42616   0.45552   0.53497
 Alpha virt. eigenvalues --    0.55221   0.62066   0.63049   0.70013   0.74235
 Alpha virt. eigenvalues --    0.75235   0.76012   0.78831   0.82348   0.87224
 Alpha virt. eigenvalues --    0.89886   0.95898   1.01407   1.01620   1.07896
 Alpha virt. eigenvalues --    1.10064   1.17418   1.41556   1.43477   1.44735
 Alpha virt. eigenvalues --    1.49676   1.54694   1.57949   1.64456   1.66518
 Alpha virt. eigenvalues --    1.70213   1.75773   1.80897   1.85838   1.91246
 Alpha virt. eigenvalues --    1.95692   1.96592   2.02890   2.17058   2.18667
 Alpha virt. eigenvalues --    2.22435   2.28591   2.30689   2.32410   2.34230
 Alpha virt. eigenvalues --    2.37864   2.39698   2.47574   2.51597   2.57673
 Alpha virt. eigenvalues --    2.63341   2.69611   2.71725   2.74099   2.78638
 Alpha virt. eigenvalues --    2.84511   2.88426   2.96453   2.98066   3.05509
 Alpha virt. eigenvalues --    3.08660   3.11504   3.13862   3.14979   3.19722
 Alpha virt. eigenvalues --    3.20363   3.27701   3.28374   3.39384   3.44162
 Alpha virt. eigenvalues --    3.59323   3.62477   3.69621   3.72325   3.75410
 Alpha virt. eigenvalues --    3.75478   3.83321   3.88263   3.89864   3.93336
 Alpha virt. eigenvalues --    4.05143   4.06906   4.20318   4.24188   4.25312
 Alpha virt. eigenvalues --    4.64561   5.19258   5.20942   6.91280   6.91343
 Alpha virt. eigenvalues --    6.91865   6.92049   6.99891   7.00286   7.01871
 Alpha virt. eigenvalues --    7.02609   7.24089   7.28083   7.29645   7.30536
 Alpha virt. eigenvalues --    7.33635   7.33873   8.42984   8.45463   8.47402
 Alpha virt. eigenvalues --    8.47693   8.82302   8.87160   8.90461   8.90470
 Alpha virt. eigenvalues --    9.06687   9.08441  22.22816  22.40270  57.04667
 Alpha virt. eigenvalues --   57.12028
          Condensed to atoms (all electrons):
               1          2          3          4          5          6
     1  C    4.747725   0.264355   0.407719   0.219197   0.376613  -0.042567
     2  C    0.264355   4.747725  -0.056470  -0.042567  -0.033184   0.219197
     3  H    0.407719  -0.056470   0.650658  -0.040882  -0.052509   0.002030
     4  F    0.219197  -0.042567  -0.040882   9.163702  -0.039956   0.001165
     5  H    0.376613  -0.033184  -0.052509  -0.039956   0.678787   0.004271
     6  F   -0.042567   0.219197   0.002030   0.001165   0.004271   9.163702
     7  H   -0.033184   0.376613  -0.005885   0.004271   0.003886  -0.039956
     8  H   -0.056470   0.407719   0.012969   0.002030  -0.005885  -0.040882
               7          8
     1  C   -0.033184  -0.056470
     2  C    0.376613   0.407719
     3  H   -0.005885   0.012969
     4  F    0.004271   0.002030
     5  H    0.003886  -0.005885
     6  F   -0.039956  -0.040882
     7  H    0.678787  -0.052509
     8  H   -0.052509   0.650658
 Mulliken charges:
               1
     1  C    0.116612
     2  C    0.116612
     3  H    0.082371
     4  F   -0.266960
     5  H    0.067977
     6  F   -0.266960
     7  H    0.067977
     8  H    0.082371
 Sum of Mulliken charges =  -0.00000
 Mulliken charges with hydrogens summed into heavy atoms:
               1
     1  C    0.266960
     2  C    0.266960
     4  F   -0.266960
     6  F   -0.266960
 APT charges:
               1
     1  C    0.575627
     2  C    0.575627
     3  H   -0.025949
     4  F   -0.522214
     5  H   -0.027464
     6  F   -0.522214
     7  H   -0.027464
     8  H   -0.025949
 Sum of APT charges =   0.00000
 APT charges with hydrogens summed into heavy atoms:
               1
     1  C    0.522214
     2  C    0.522214
     4  F   -0.522214
     6  F   -0.522214
 Electronic spatial extent (au):  <R**2>=            280.5197
 Charge=             -0.0000 electrons
 Dipole moment (field-independent basis, Debye):
    X=              0.0000    Y=             -0.0000    Z=             -2.5465  Tot=              2.5465
 Quadrupole moment (field-independent basis, Debye-Ang):
   XX=            -21.7944   YY=            -25.8441   ZZ=            -22.4144
   XY=              1.4983   XZ=              0.0000   YZ=             -0.0000
 Traceless Quadrupole moment (field-independent basis, Debye-Ang):
   XX=              1.5566   YY=             -2.4931   ZZ=              0.9365
   XY=              1.4983   XZ=              0.0000   YZ=             -0.0000
 Octapole moment (field-independent basis, Debye-Ang**2):
  XXX=              0.0000  YYY=             -0.0000  ZZZ=              5.8216  XYY=              0.0000
  XXY=             -0.0000  XXZ=              2.2710  XZZ=              0.0000  YZZ=             -0.0000
  YYZ=             -1.6124  XYZ=              0.5647
 Hexadecapole moment (field-independent basis, Debye-Ang**3):
 XXXX=            -40.1409 YYYY=           -190.7475 ZZZZ=            -69.4969 XXXY=              2.5848
 XXXZ=              0.0000 YYYX=              2.5083 YYYZ=             -0.0000 ZZZX=              0.0000
 ZZZY=              0.0000 XXYY=            -37.7212 XXZZ=            -19.5727 YYZZ=            -41.1016
 XXYZ=              0.0000 YYXZ=              0.0000 ZZXY=             -0.4197
 N-N= 1.288176979626D+02 E-N=-9.171680905362D+02  KE= 2.773495267932D+02
 Symmetry A    KE= 1.399292857302D+02
 Symmetry B    KE= 1.374202410631D+02
  Exact polarizability:      26.223       0.318      27.429      -0.000       0.000      26.879
 Approx polarizability:      33.877      -0.785      32.324      -0.000       0.000      35.362
 Rotating derivatives to standard orientation.
 Full mass-weighted force constant matrix:
 Low frequencies ---   -0.0012   -0.0007    0.0009    1.9601    9.5407   10.6938
 Low frequencies ---  154.6010  329.1396  505.2649
 Diagonal vibrational polarizability:
        1.0504704       3.7375744       7.2504025
 Harmonic frequencies (cm**-1), IR intensities (KM/Mole), Raman scattering
 activities (A**4/AMU), depolarization ratios for plane and unpolarized
 incident light, reduced masses (AMU), force constants (mDyne/A),
 and normal coordinates:
                      1                      2                      3
                      A                      A                      B
 Frequencies --    154.6008               329.1395               505.2647
 Red. masses --      4.6220                 2.5196                 2.2759
 Frc consts  --      0.0651                 0.1608                 0.3423
 IR Inten    --      3.3017                 0.1892                14.5969
  Atom  AN      X      Y      Z        X      Y      Z        X      Y      Z
     1   6     0.08  -0.03   0.15    -0.13   0.06  -0.01     0.09   0.12  -0.11
     2   6    -0.08   0.03   0.15     0.13  -0.06  -0.01     0.09   0.12   0.11
     3   1     0.06  -0.17   0.43    -0.11   0.31  -0.32     0.10   0.50  -0.32
     4   9    -0.10   0.24  -0.12     0.06   0.16   0.02    -0.05  -0.10  -0.03
     5   1     0.40  -0.12   0.01    -0.48  -0.10   0.00    -0.28  -0.01  -0.08
     6   9     0.10  -0.24  -0.12    -0.06  -0.16   0.02    -0.05  -0.10   0.03
     7   1    -0.40   0.12   0.01     0.48   0.10   0.00    -0.28  -0.01   0.08
     8   1    -0.06   0.17   0.43     0.11  -0.31  -0.32     0.10   0.50   0.32
                      4                      5                      6
                      A                      B                      B
 Frequencies --    886.1139               910.3790              1121.2455
 Red. masses --      2.3322                 2.0100                 4.2639
 Frc consts  --      1.0789                 0.9815                 3.1584
 IR Inten    --     23.3511                39.7731                64.4624
  Atom  AN      X      Y      Z        X      Y      Z        X      Y      Z
     1   6     0.03   0.15  -0.14    -0.08   0.13  -0.07    -0.07   0.06   0.29
     2   6    -0.03  -0.15  -0.14    -0.08   0.13   0.07    -0.07   0.06  -0.29
     3   1     0.01   0.03   0.17    -0.08  -0.38   0.18    -0.04   0.24  -0.07
     4   9    -0.02   0.06   0.08     0.03  -0.08  -0.05     0.06  -0.06  -0.16
     5   1     0.34   0.55  -0.01     0.39   0.34  -0.10    -0.34   0.16   0.40
     6   9     0.02  -0.06   0.08     0.03  -0.08   0.05     0.06  -0.06   0.16
     7   1    -0.34  -0.55  -0.01     0.39   0.34   0.10    -0.34   0.16  -0.40
     8   1    -0.01  -0.03   0.17    -0.08  -0.38  -0.18    -0.04   0.24   0.07
                      7                      8                      9
                      A                      A                      B
 Frequencies --   1126.4761              1153.5906              1261.7310
 Red. masses --      2.1316                 3.5435                 1.1246
 Frc consts  --      1.5937                 2.7783                 1.0548
 IR Inten    --      3.0630               106.4042                 8.7310
  Atom  AN      X      Y      Z        X      Y      Z        X      Y      Z
     1   6     0.20   0.08   0.05    -0.11   0.18   0.15    -0.05   0.01   0.00
     2   6    -0.20  -0.08   0.05     0.11  -0.18   0.15    -0.05   0.01  -0.00
     3   1     0.23   0.40  -0.37    -0.11   0.34   0.39    -0.10   0.40   0.41
     4   9    -0.03  -0.01  -0.02     0.08  -0.08  -0.13     0.03  -0.01   0.00
     5   1    -0.26   0.07   0.17     0.14   0.28   0.13     0.11  -0.31  -0.23
     6   9     0.03   0.01  -0.02    -0.08   0.08  -0.13     0.03  -0.01  -0.00
     7   1     0.26  -0.07   0.17    -0.14  -0.28   0.13     0.11  -0.31   0.23
     8   1    -0.23  -0.40  -0.37     0.11  -0.34   0.39    -0.10   0.40  -0.41
                     10                     11                     12
                      A                      B                      A
 Frequencies --   1300.6683              1389.6821              1431.5514
 Red. masses --      1.0768                 1.2550                 1.5950
 Frc consts  --      1.0733                 1.4280                 1.9258
 IR Inten    --      3.4881                10.8824                19.8065
  Atom  AN      X      Y      Z        X      Y      Z        X      Y      Z
     1   6    -0.02  -0.02   0.03    -0.02  -0.09  -0.06     0.01   0.16   0.02
     2   6     0.02   0.02   0.03    -0.02  -0.09   0.06    -0.01  -0.16   0.02
     3   1    -0.00  -0.38  -0.19    -0.03   0.37   0.13     0.03  -0.55  -0.12
     4   9    -0.01   0.01  -0.02     0.01   0.01  -0.01    -0.01  -0.01   0.00
     5   1    -0.17   0.42   0.33     0.10   0.52   0.23    -0.10  -0.32  -0.21
     6   9     0.01  -0.01  -0.02     0.01   0.01   0.01     0.01   0.01   0.00
     7   1     0.17  -0.42   0.33     0.10   0.52  -0.23     0.10   0.32  -0.21
     8   1     0.00   0.38  -0.19    -0.03   0.37  -0.13    -0.03   0.55  -0.12
                     13                     14                     15
                      B                      A                      B
 Frequencies --   1467.9753              1470.0060              3017.8668
 Red. masses --      1.0864                 1.0940                 1.0575
 Frc consts  --      1.3793                 1.3929                 5.6748
 IR Inten    --     10.6847                 0.0163                12.9779
  Atom  AN      X      Y      Z        X      Y      Z        X      Y      Z
     1   6    -0.04  -0.02   0.04     0.04   0.00  -0.05     0.02   0.02  -0.04
     2   6    -0.04  -0.02  -0.04    -0.04  -0.00  -0.05     0.02   0.02   0.04
     3   1     0.01   0.19  -0.46    -0.01  -0.06   0.50    -0.40   0.00  -0.04
     4   9    -0.00   0.00   0.01     0.01   0.00  -0.00     0.00  -0.00  -0.00
     5   1     0.48  -0.03  -0.14    -0.48  -0.02   0.10     0.16  -0.26   0.49
     6   9    -0.00   0.00  -0.01    -0.01  -0.00  -0.00     0.00  -0.00   0.00
     7   1     0.48  -0.03   0.14     0.48   0.02   0.10     0.16  -0.26  -0.49
     8   1     0.01   0.19   0.46     0.01   0.06   0.50    -0.40   0.00   0.04
                     16                     17                     18
                      A                      A                      B
 Frequencies --   3024.2769              3071.7348              3083.7728
 Red. masses --      1.0591                 1.1060                 1.1067
 Frc consts  --      5.7073                 6.1483                 6.2005
 IR Inten    --     33.2743                19.3578                37.8124
  Atom  AN      X      Y      Z        X      Y      Z        X      Y      Z
     1   6    -0.03  -0.02   0.03    -0.05   0.02  -0.04    -0.06   0.02  -0.03
     2   6     0.03   0.02   0.03     0.05  -0.02  -0.04    -0.06   0.02   0.03
     3   1     0.52  -0.00   0.05     0.48   0.01   0.04     0.58   0.01   0.05
     4   9    -0.00   0.00   0.00    -0.00   0.00   0.00     0.00  -0.00  -0.00
     5   1    -0.13   0.22  -0.40     0.13  -0.24   0.44     0.10  -0.19   0.33
     6   9     0.00  -0.00   0.00     0.00  -0.00   0.00     0.00  -0.00   0.00
     7   1     0.13  -0.22  -0.40    -0.13   0.24   0.44     0.10  -0.19  -0.33
     8   1    -0.52   0.00   0.05    -0.48  -0.01   0.04     0.58   0.01  -0.05

 -------------------
 - Thermochemistry -
 -------------------
 Temperature   298.150 Kelvin.  Pressure   1.00000 Atm.
 Atom     1 has atomic number  6 and mass  12.00000
 Atom     2 has atomic number  6 and mass  12.00000
 Atom     3 has atomic number  1 and mass   1.00783
 Atom     4 has atomic number  9 and mass  18.99840
 Atom     5 has atomic number  1 and mass   1.00783
 Atom     6 has atomic number  9 and mass  18.99840
 Atom     7 has atomic number  1 and mass   1.00783
 Atom     8 has atomic number  1 and mass   1.00783
 Molecular mass:    66.02811 amu.
 Principal axes and moments of inertia in atomic units:
                           1         2         3
     Eigenvalues --   102.74362 352.56629 404.24541
           X           -0.09095  -0.00000   0.99586
           Y            0.99586   0.00000   0.09095
           Z           -0.00000   1.00000   0.00000
 This molecule is an asymmetric top.
 Rotational symmetry number  2.
 Rotational temperatures (Kelvin)      0.84301     0.24567     0.21426
 Rotational constants (GHZ):          17.56548     5.11887     4.46447
 Zero-point vibrational energy     159737.8 (Joules/Mol)
                                   38.17825 (Kcal/Mol)
 Warning -- explicit consideration of   3 degrees of freedom as
           vibrations may cause significant error
 Vibrational temperatures:    222.44   473.56   726.96  1274.92  1309.83
          (Kelvin)           1613.22  1620.75  1659.76  1815.35  1871.37
                             1999.44  2059.68  2112.09  2115.01  4342.04
                             4351.26  4419.54  4436.86
 
 Zero-point correction=                           0.060841 (Hartree/Particle)
 Thermal correction to Energy=                    0.065138
 Thermal correction to Enthalpy=                  0.066082
 Thermal correction to Gibbs Free Energy=         0.034538
 Sum of electronic and zero-point Energies=           -278.219385
 Sum of electronic and thermal Energies=              -278.215088
 Sum of electronic and thermal Enthalpies=            -278.214144
 Sum of electronic and thermal Free Energies=         -278.245688
 
                     E (Thermal)             CV                S
                      KCal/Mol        Cal/Mol-Kelvin    Cal/Mol-Kelvin
 Total                   40.875             13.165             66.390
 Electronic               0.000              0.000              0.000
 Translational            0.889              2.981             38.481
 Rotational               0.889              2.981             22.819
 Vibrational             39.097              7.204              5.090
 Vibration     1          0.620              1.898              2.615
 Vibration     2          0.712              1.617              1.264
 Vibration     3          0.861              1.238              0.645
                       Q            Log10(Q)             Ln(Q)
 Total Bot       0.129845D-15        -15.886573        -36.580186
 Total V=0       0.125395D+13         12.098281         27.857322
 Vib (Bot)       0.284278D-27        -27.546256        -63.427599
 Vib (Bot)    1  0.130980D+01          0.117204          0.269872
 Vib (Bot)    2  0.567980D+00         -0.245667         -0.565668
 Vib (Bot)    3  0.323758D+00         -0.489780         -1.127760
 Vib (V=0)       0.274535D+01          0.438598          1.009909
 Vib (V=0)    1  0.190199D+01          0.279208          0.642899
 Vib (V=0)    2  0.125670D+01          0.099233          0.228493
 Vib (V=0)    3  0.109567D+01          0.039679          0.091363
 Electronic      0.100000D+01          0.000000          0.000000
 Translational   0.210886D+08          7.324047         16.864242
 Rotational      0.216589D+05          4.335636          9.983171
 ***** Axes restored to original set *****
 -------------------------------------------------------------------
 Center     Atomic                   Forces (Hartrees/Bohr)
 Number     Number              X              Y              Z
 -------------------------------------------------------------------
      1        6          -0.000025040   -0.000008850   -0.000000322
      2        6           0.000024881   -0.000004423    0.000008171
      3        1          -0.000003402    0.000002068   -0.000000687
      4        9           0.000016952    0.000002878   -0.000010521
      5        1          -0.000009754    0.000001052    0.000006280
      6        9          -0.000016787    0.000010904    0.000002371
      7        1           0.000009705   -0.000005168   -0.000003846
      8        1           0.000003445    0.000001538   -0.000001446
 -------------------------------------------------------------------
 Cartesian Forces:  Max     0.000025040 RMS     0.000010262

 ----------------------------------------------------------------------

 Electric dipole moment (input orientation):
 (Debye = 10**-18 statcoulomb cm , SI units = C m)
                  (au)            (Debye)         (10**-30 SI)
   Tot        0.100188D+01      0.254652D+01      0.849426D+01
   x          0.102799D-01      0.261290D-01      0.871570D-01
   y          0.862345D+00      0.219186D+01      0.731127D+01
   z         -0.509913D+00     -0.129607D+01     -0.432322D+01

 Dipole polarizability, Alpha (input orientation).
 (esu units = cm**3 , SI units = C**2 m**2 J**-1)
 Alpha(0;0):
               (au)            (10**-24 esu)      (10**-40 SI)
   iso        0.268439D+02      0.397785D+01      0.442596D+01
   aniso      0.118259D+01      0.175242D+00      0.194983D+00
   xx         0.274979D+02      0.407477D+01      0.453379D+01
   yx         0.546764D-01      0.810221D-02      0.901492D-02
   yy         0.266905D+02      0.395512D+01      0.440066D+01
   zx         0.104939D+00      0.155504D-01      0.173021D-01
   zy        -0.318166D+00     -0.471473D-01     -0.524584D-01
   zz         0.263433D+02      0.390367D+01      0.434342D+01

 ----------------------------------------------------------------------

 Dipole orientation:
     6         -1.15744551         -1.01145036          1.73721332
     6          1.66499138         -0.92583540          1.73721332
     1         -1.81531836         -2.96756060          1.57822213
     9         -2.11076786          0.34225766         -0.24840312
     1         -1.87476104         -0.20615588          3.50592227
[...]
 0.00019024,0.00013046,-0.00022852,0.00023218,0.00002517,0.00061830,-0.
 00321786,-0.00288878,-0.00109437,0.00020241,0.00201253,-0.00580833,0.0
 0362645,0.00722325,0.00068404,-0.00041315,0.00004132,0.00005516,-0.000
 12207,-0.00005874,0.00020644,0.00017437,-0.00132364,0.00358943,0.00138
 719,-0.00691234,-0.00001911,0.00123085,-0.00070650,0.02080486,0.061425
 58,-0.00714966,-0.00009071,0.00000850,0.00000674,0.00024613,0.00004712
 ,0.00030252,0.00022619,-0.00028553,0.00013526,-0.00017057,-0.00134229,
 0.00097699,-0.02184839,0.00107227,-0.00300715,-0.00041275,0.04618344,0
 .14778562,-0.01310638,0.00034788,-0.00022996,0.00009006,-0.00213588,-0
 .00130830,-0.00016254,0.00025942,0.00009448,-0.00055781,0.00215311,-0.
 00714478,0.00305121,-0.05388165,-0.12944038,0.00038696,0.00020469,-0.0
 0061382,-0.01228158,-0.02780917,-0.01009130,0.00030225,-0.00062095,-0.
 00003305,-0.00080569,-0.00056423,0.00004138,-0.00018534,-0.00041922,-0
 .00044321,-0.00069264,-0.00403280,0.00178149,0.00787602,0.02453860,0.0
 1183256,-0.00040675,-0.00130141,-0.00243176,0.01031711,-0.03718579,-0.
 04456083,0.00001980,0.00024248,0.00090352,-0.00248008,0.00030737,0.000
 93062,-0.00009378,0.00010557,0.00045889,-0.00053347,0.00009899,0.00139
 473,0.00084994,0.00599111,0.00540089,-0.00767488,0.00205307,-0.0034127
 9,-0.00251971,-0.02511093,0.03441713,0.06583631,0.00068795,0.00050375,
 -0.00043088,-0.00144370,-0.00014040,0.00074855,0.00000300,0.00014381,0
 .00028845,-0.00072630,-0.00294631,-0.00790495,-0.00720394,-0.00674945,
 0.00870284,0.03174245,-0.02181689,0.00051314,-0.00072382,0.00000198,-0
 .03613673,0.08067998,0.09595171,0.00064145,-0.00032591,0.00010831,0.00
 012802,-0.00005602,-0.00059674,0.00000682,-0.00041343,-0.00040331,-0.0
 0161734,-0.00099665,-0.00276611,-0.00143894,-0.01343930,-0.00247417,0.
 03790806,-0.06472336,-0.08982888,-0.03652216,0.06362993,-0.06879723,0.
 00560032,0.00561577,-0.23109390,0.00803517,-0.00257219,-0.00326982,-0.
 03868685,-0.00166186,0.00708823,0.00180935,-0.02789043,-0.19720363,-0.
 00377612,0.00449063,0.01045644,0.05794880,-0.06682795,-0.10052392,0.01
 308683,-0.02612744,-0.04965138,-0.00104808,-0.00102576,-0.00257347,-0.
 01186269,-0.02397350,0.02287962,0.07697565,0.00005987,-0.00014626,-0.0
 0068560,0.02246633,-0.02055763,-0.03545161,0.06459516,0.10788445,0.001
 04679,-0.00075807,-0.00260852,0.04432190,-0.06708955,-0.09043277,0.000
 99909,-0.00312632,0.00053036,-0.00115604,0.00264235,0.00120454,-0.0000
 7576,-0.00182638,-0.00202890,0.00195639,-0.00880421,0.00183457,0.00007
 337,-0.00068828,0.00167478,0.00030735,0.00198228,0.00042863,-0.0075821
 1,0.00588837,-0.00334305,-0.00062760,-0.00314121,0.01539553,-0.0007223
 6,0.00022840,0.00062551,0.00142762,0.00145927,-0.00665727,-0.00054067,
 0.00125881,-0.00340364,0.01632836,-0.03161147,0.04691620,0.00027242,-0
 .00156794,0.00115334,0.00115477,0.00283178,-0.00766107,-0.00016847,0.0
 0143786,-0.00062380,-0.01850179,-0.02914076,0.04028189,-0.08215391,0.0
 0013570,0.00035646,-0.00020974,0.00126486,-0.00157429,0.01036640,-0.00
 097016,0.00049794,-0.00009501,0.02843952,-0.03904065,0.03492166,-0.068
 14073,0.09708615,-0.00065322,0.00105193,-0.00289899,0.00520069,-0.0109
 7324,-0.00754668,0.00130445,0.00632526,-0.00547474,-0.03965099,0.07179
 712,-0.08015430,-0.00118449,-0.00018300,0.00285955,0.00121177,0.002121
 02,-0.00245136,-0.00163262,0.00069655,-0.00108193,0.00011491,-0.000122
 00,0.00015565,0.00001673,0.00028860,-0.00157897,0.00173402,-0.00026618
 ,0.00065145,-0.00039245,0.00387563,0.01343925,0.00338020,0.00042393,-0
 .00069076,0.00053364,0.00019794,0.00015403,-0.00014630,0.00025326,-0.0
 0008588,0.00023483,-0.00342696,-0.00433370,-0.00098365,-0.00024492,0.0
 0167699,-0.00792515,0.00667303,0.00357864,0.00052503,-0.00016307,-0.00
 015523,-0.00003389,-0.00010556,0.00001742,0.00018891,0.00016253,-0.000
 87428,0.00495090,0.00052674,-0.00219116,0.00030246,0.00173525,-0.00082
 374,0.01829992,0.05886296,-0.00496460,0.00049675,-0.00030030,-0.000346
 02,-0.00000752,0.00003136,0.00031046,0.00039700,-0.00010989,0.00039476
 ,-0.00017119,-0.00131262,0.00098062,-0.02037398,-0.00068041,-0.0025178
 5,-0.00051102,0.04701849,0.14552807,-0.00869047,-0.00001291,-0.0001180
 1,0.00011963,-0.00153652,-0.00083226,-0.00021156,0.00039391,-0.0000201
 1,-0.00024659,0.00146903,-0.00672277,0.00235535,-0.05062507,-0.1294886
 0,-0.00022413,-0.00175788,-0.00005439,-0.00882570,-0.02251436,-0.01013
 202,0.00012233,0.00008581,-0.00039480,-0.00051102,-0.00025303,-0.00010
 332,0.00010219,0.00020205,-0.00003764,-0.00031310,-0.00407212,0.001748
 87,0.00585119,0.02047467,0.01216526,-0.00104593,-0.00175254,-0.0021614
 3,0.01307108,-0.03147640,-0.04654804,-0.00012127,0.00004877,0.00120431
 ,-0.00165828,0.00027779,0.00062327,0.00049955,0.00009787,0.00005302,-0
 .00008483,0.00025555,0.00230133,0.00105490,0.00396317,0.00379912,-0.01
 171734,0.00089597,-0.00141209,-0.00141511,-0.01994497,0.02927062,0.068
 23363,0.00103195,-0.00022665,-0.00019015,-0.00126847,-0.00041871,0.000
 64925,-0.00017411,-0.00041594,-0.00004758,-0.00084230,-0.00241661,-0.0
 0920263,-0.00828305,-0.00582840,0.00783463,0.02858656,-0.01855336,0.00
 053333,-0.00141823,-0.00134400,-0.03760406,0.08033886,0.10151113,0.000
 62995,0.00038994,-0.00009221,0.00007687,-0.00002205,-0.00040273,-0.000
 42480,-0.00006991,-0.00009923,-0.00253911,-0.00006340,-0.00380350,-0.0
 0140023,-0.01328892,-0.00319209,0.04073254,-0.06586480,-0.09258456,-0.
 13898035,-0.23675036,0.03484745,0.14983695,-0.23947206,0.71288080,0.01
 652449,0.00649729,-0.00355884,-0.12725460,-0.00668196,-0.00781132,0.00
 025887,0.25935791,0.74875238,0.00425108,0.00167546,-0.00674175,-0.1336
 8564,0.16303876,-0.01275102,0.04861284,0.06190778,0.13547689,-0.002667
 72,0.00098321,0.00225968,-0.05206575,0.05981518,0.01349895,-0.16715152
 ,-0.00007810,0.00009947,0.00074946,-0.05735256,-0.01894827,0.12908022,
 -0.15598987,-0.28614218,-0.00385028,0.00096299,0.00285739,-0.13183527,
 0.16024041,0.28414813,-0.00010123,-0.00389461,0.00144992,0.00101801,0.
 00004145,-0.00022115,-0.00028772,0.00088417,0.00028695,0.00053725,0.00
 964230,0.00709932,0.00341074,-0.00100281,0.00105509,-0.00048569,-0.002
 43416,-0.00006446,0.00486415,-0.00158895,-0.00748436,-0.00037445,-0.00
 333726,-0.00245183,-0.00037437,0.00027003,-0.00050110,-0.00168744,-0.0
 0166459,0.00136516,0.00049350,0.00091872,0.00064732,0.08000690,0.17515
 716,-0.28483978,-0.00437955,0.00200242,-0.00402049,0.00462109,-0.00309
 089,0.00615299,-0.00124702,-0.00525195,0.00206862,-0.08113420,0.172557
 39,-0.05711732,0.40169674,-0.00061614,0.00190905,-0.00338578,-0.003056
 11,0.00578420,-0.00999730,0.00235772,0.00025271,0.00399118,-0.16934475
 ,0.04982704,-0.28142212,0.39673501,-0.41958922,0.00461038,-0.00347584,
 0.00608813,-0.00412079,0.00812191,-0.00180861,-0.00198210,-0.00923901,
 0.00111938,0.28055038,-0.39254912,0.41510349,0.00102870,-0.00022129,-0
 .00007184,-0.00018891,0.00315249,-0.00289767,0.00075779,-0.00012609,0.
 00025727,-0.00013090,0.00025556,-0.00012095,-0.00059355,-0.00122972,0.
 00178614,0.00060043,0.00013896,-0.00004749,-0.00033378,-0.00489994,-0.
 00023331,-0.00738913,-0.00034069,0.00006755,-0.00005244,-0.00023670,-0
 .00050897,0.00013691,0.00015274,-0.00002254,-0.00009502,0.00111145,-0.
 00205765,-0.00107217,-0.00107596,0.00059049,0.00820501,-0.00075254,0.0
 0496897,0.00035536,-0.00018344,-0.00044399,0.00017850,0.00090929,0.000
 06727,-0.00001604,-0.00000862,-0.00015140,-0.00102975,0.00395720,-0.00
 484318,-0.00439351,-0.00426806,-0.00023014,0.06770881,-0.34771330,0.01
 594565,0.00098787,-0.00006159,-0.00005437,-0.00055576,-0.00007861,0.00
 011903,0.00174759,-0.00009665,0.00047285,-0.00119336,0.00436175,-0.003
 73462,-0.06905402,0.00455814,0.00801386,-0.00006837,-0.34341258,-0.660
 58205,0.05449209,0.00033605,-0.00037086,-0.00024059,0.00216635,-0.0001
 1407,-0.00010470,0.00041227,-0.00069197,0.00051536,-0.00271759,0.00310
 686,-0.00761924,0.34091172,0.64997462,0.00163429,-0.00010301,-0.000002
 40,0.01540145,0.05941984,0.19617317,-0.00044239,-0.00024252,-0.0000914
 3,-0.00022211,-0.00003575,-0.00009732,0.00016897,0.00026913,-0.0002519
 4,0.00121562,0.00560059,-0.00178824,-0.01288266,-0.05229717,-0.1971248
 3,-0.00269851,0.00156431,0.00193690,0.04923887,0.08886172,0.11836162,0
 .00003952,0.00001299,-0.00003405,0.00077169,0.00046178,-0.00012138,0.0
 0097731,-0.00056601,0.00009665,-0.00027592,-0.00028702,-0.00288219,0.0
 0475073,-0.00226465,-0.00487229,-0.05280582,-0.00328065,0.00152512,0.0
 0166104,0.08414818,-0.08318179,-0.20869714,-0.00004029,-0.00007196,0.0
 0020760,0.00027138,-0.00023932,-0.00020866,-0.00003421,0.00005824,-0.0
 0001229,-0.00022387,-0.00030944,0.00477477,0.00694338,0.00066369,-0.01
 261135,-0.08778235,0.08155431,-0.00194161,0.00156627,0.00146336,0.1132
 4758,-0.21972094,-0.19008553,-0.00000338,0.00012950,0.00011251,0.00001
 822,-0.00034042,-0.00015212,-0.00006467,-0.00001670,-0.00050954,0.0008
 6281,-0.00182321,0.00159781,0.00036669,0.00532372,0.00318287,-0.112481
 15,0.21488326,0.18438344,-0.15527457,-0.21536684,0.00294106,-0.0458044
 5,0.02365461,0.77014071,0.01896326,0.00042574,-0.00930337,-0.14848390,
 -0.00870126,0.00003124,0.00083342,0.07287111,0.56961084,-0.00394065,-0
 .00203402,-0.00081187,-0.20846417,0.34102395,0.19667914,0.08692896,0.1
 0960757,0.23661128,-0.00399799,0.00173286,0.00225523,-0.08870146,0.105
 75617,0.01853506,-0.29153168,-0.00030127,-0.00097903,0.00211330,-0.102
 69175,-0.02364594,0.22932353,-0.28325347,-0.48069715,-0.00421804,0.001
 51332,0.00500728,-0.22994757,0.28271588,0.47646981,0.00214482,-0.00449
 736,-0.00101011,-0.00268837,0.00006746,-0.00019719,-0.00107550,0.00116
 833,0.00121373,0.00084749,0.00843960,0.00609932,0.00007966,-0.00230743
 ,-0.00003833,0.00046792,-0.00434766,-0.00009313,0.00775541,-0.00044511
 ,-0.00650706,0.00065395,0.00163517,-0.00163717,0.00048135,-0.00085786,
 -0.00034196,-0.00254273,-0.00304904,0.00215252,0.00046336,-0.00075276,
 -0.00057326,0.06039089,0.10986401,-0.18325259,-0.00649865,0.00088279,-
 0.00097426,0.00455386,-0.00322299,0.00423059,-0.00117014,-0.00303643,0
 .00090703,-0.06063160,0.10772939,-0.03408995,0.26502871,-0.00059646,0.
 00065395,-0.00204138,-0.00294966,0.00581808,-0.00831980,0.00178557,0.0
 0059549,0.00274031,-0.10448701,0.02680495,-0.17750846,0.25562364,-0.28
 800335,0.00404541,-0.00247675,0.00323616,-0.00597909,0.01045781,-0.001
 85318,-0.00100137,-0.00656630,0.00048331,0.17934146,-0.25707094,0.2856
 1524,-0.00264465,-0.00016488,-0.00007659,0.00207259,0.00127313,-0.0044
 9373,0.00136995,0.00011588,0.00060453,0.00029558,0.00034353,-0.0000982
 3,0.00022221,-0.00093956,0.00146532,0.00087029,0.00158712,-0.00013115,
 -0.00087784,-0.00352049,-0.00052524,-0.00198743,-0.00034509,0.00030205
 ,0.00018971,-0.00026515,-0.00022662,0.00046512,-0.00020782,0.00016043,
 -0.00026162,0.00056046,-0.00133646,-0.00180532,0.00046026,-0.00029316,
 0.00761705,-0.00370796,0.00506009,0.00079111,-0.00048671,-0.00072362,0
 .00025563,0.00002769,0.00004666,0.00046919,-0.00040386,0.00035317,-0.0
 0006162,0.00211077,-0.00576731,-0.00646751,-0.00108551,0.00023742,0.05
 261765,-0.22274828,0.00769449,0.00137793,-0.00042295,0.00018078,0.0002
 6283,0.00051896,0.00004697,0.00174713,-0.00036647,-0.00030935,-0.00114
 764,0.00227851,-0.00232597,-0.05303581,0.00403127,0.00449585,-0.000301
 50,-0.21658698,-0.44128380,0.02516479,0.00000474,0.00005772,-0.0001050
 8,0.00174171,0.00054995,-0.00000811,-0.00013033,-0.00005280,0.00036529
 ,-0.00162137,0.00211483,-0.00570298,0.21653760,0.43511660,0.00136659,0
 .00006098,-0.00063653,0.00875701,0.03448898,0.12696331,-0.00016632,-0.
 00008574,0.00002401,-0.00011637,-0.00016031,-0.00007664,-0.00045195,0.
 00011873,0.00020301,0.00114454,0.00358538,-0.00105836,-0.00485204,-0.0
 2610649,-0.13029279,-0.00404187,0.00120948,0.00259848,0.08801481,0.154
 62613,0.20811336,-0.00045782,-0.00039830,-0.00138409,0.00138762,0.0008
 3771,0.00009087,0.00138487,-0.00017006,-0.00006253,-0.00103405,-0.0000
 8699,-0.00493597,0.00464376,-0.00398693,-0.00568059,-0.08989946,-0.003
 47647,0.00212715,0.00311628,0.15000959,-0.12746212,-0.36270908,-0.0010
 0776,-0.00000017,-0.00050101,0.00044536,-0.00038367,-0.00017120,0.0003
 4058,0.00010926,-0.00007012,0.00043377,-0.00036286,0.00770426,0.005286
 78,-0.00099827,-0.01190177,-0.15203027,0.12696953,-0.00229301,0.003851
 42,0.00194579,0.20108003,-0.37081593,-0.33578389,-0.00101925,-0.000134
 59,-0.00038268,0.00039406,-0.00084928,-0.00005667,-0.00026953,-0.00005
 224,-0.00003405,0.00151743,-0.00322296,0.00238026,-0.00066985,0.006695
 18,0.00487386,-0.19873540,0.36452990,0.32705018,-0.14204897,-0.2776332
 5,0.06191127,0.02993296,-0.07842385,0.71312810,0.02218202,0.00756799,-
 0.00437270,-0.13143307,-0.00811893,-0.01451493,-0.00074749,0.17100918,
 0.62229498,0.00489103,-0.00176396,-0.01589416,-0.22762241,0.23872315,0
 .14212736,0.06613218,0.10991289,0.22060793,-0.00213319,0.00164527,0.00
 201545,-0.06324289,0.10786148,0.00104471,-0.27511428,-0.00192222,0.001
 65993,0.00280536,-0.10802383,0.00086186,0.21741562,-0.27816108,-0.3846
 7413,-0.00167477,0.00056185,0.00550905,-0.21854012,0.27384555,0.375250
 34,-0.00219156,-0.00111274,0.00048476,-0.00101257,-0.00086225,-0.00022
 380,0.00074229,0.00074299,0.00239151,0.00156671,0.01393208,0.01039908,
 0.00164641,-0.00252432,0.00043352,-0.00005038,-0.00432281,-0.00018076,
 0.00649229,-0.00380488,-0.01117481,0.00099662,0.00070410,-0.00534779,0
 .00032964,-0.00079521,0.00027071,-0.00247082,-0.00113485,0.00268328,0.
 00018044,-0.00054472,0.00126032,0.06350809,0.16186881,-0.24890463,-0.0
 0451452,0.00172802,-0.00145547,-0.00194233,0.00149663,0.00110760,0.000
 13688,-0.00416572,0.00113581,-0.05907625,0.16046726,-0.07004689,0.3507
 9114,-0.00172833,0.00323616,-0.00324421,0.00144466,-0.00315932,-0.0019
 7205,0.00199816,0.00073630,0.00156240,-0.16024172,0.06908434,-0.247850
 18,0.35478448,-0.31325426,0.00157490,-0.00117273,0.00623248,-0.0003830
 8,0.00034310,0.00223108,-0.00334353,-0.00730352,0.00105635,0.24777881,
 -0.34682311,0.30402145,-0.00095087,0.00024726,-0.00088551,-0.00239871,
 0.00101381,-0.00096199,0.00037962,0.00048350,0.00079249,0.00002994,0.0
 0030881,0.00011977,0.00028724,-0.00181939,0.00201222,0.00170065,0.0015
 4007,0.00063448,-0.00063587,-0.00577906,-0.00259845,-0.00653617,-0.000
 20508,0.00022219,-0.00006705,-0.00005514,-0.00046831,0.00029190,-0.000
 33110,0.00029265,0.00005679,0.00188984,-0.00123582,-0.00206023,0.00011
 617,0.00000774,0.01248468,-0.00576107,0.00785739,0.00030318,-0.0004471
 4,-0.00050584,0.00033903,0.00070226,0.00008476,0.00006052,-0.00038654,
 0.00029756,-0.00305128,0.00503499,-0.00881315,-0.00450887,-0.00188760,
 0.00076390,0.05241564,-0.30769216,0.02223823,0.00047029,0.00014079,-0.
 00045067,0.00034696,0.00021757,-0.00025658,0.00114168,0.00023485,0.000
 29233,0.00015340,0.00302860,-0.00318761,-0.04803428,0.00241288,0.00739
 629,0.00112782,-0.30613296,-0.54406183,0.08473330,0.00008285,-0.000169
 46,-0.00042098,0.00263899,0.00038559,0.00016782,0.00011228,-0.00040306
 ,0.00031246,-0.00377511,0.00342100,-0.00582013,0.30564978,0.53175064,-
 0.00084171,-0.00096023,0.00206704,0.02144729,0.08073709,0.17185269,-0.
 00034832,-0.00015750,0.00005175,-0.00062778,-0.00029439,0.00014522,0.0
 0036110,0.00000354,-0.00022036,0.00021234,0.00305902,-0.00164470,-0.02
 130165,-0.08305360,-0.16968739,-0.00212270,0.00102885,0.00237336,0.066
 89381,0.14128099,0.20111205,-0.00040804,-0.00077622,-0.00103820,0.0003
 8565,0.00036243,-0.00003232,0.00045779,-0.00034976,-0.00009007,0.00080
 301,-0.00008759,-0.00488419,-0.00198648,-0.00099902,0.00109961,-0.0640
 2517,-0.00046261,0.00318457,0.00135779,0.13950351,-0.06644186,-0.31466
 905,-0.00053073,-0.00028452,-0.00028358,0.00045566,-0.00013471,-0.0002
 4979,-0.00046439,0.00025923,-0.00019647,0.00165223,-0.00027272,0.00656
 293,0.00030682,0.00168090,0.00066584,-0.14045891,0.06200797,-0.0024919
 2,0.00370297,0.00397475,0.19782865,-0.31154440,-0.31794726,-0.00118157
 ,-0.00014103,-0.00054856,0.00080110,-0.00064591,-0.00015609,-0.0000837
 8,0.00006837,-0.00036400,0.00176360,-0.00120248,0.00271399,0.00190451,
 0.00295441,-0.00256439,-0.19853611,0.30680956,0.31488435,-0.14447893,-
 0.26540535,0.03208107,-0.16984298,0.18364579,0.76760450,0.01739407,0.0
 0768115,0.00098067,-0.13856619,-0.00335978,-0.01205685,-0.00020189,-0.
 01492294,0.44236721,0.00745289,-0.00493394,-0.01477046,-0.31231387,0.4
 1427330,0.35140450,0.10246531,0.15652362,0.31949035,-0.00489469,0.0017
 3468,0.00170457,-0.09782867,0.15379799,0.00705825,-0.39910618,-0.00299
 621,0.00173989,0.00376886,-0.15340353,-0.00521562,0.31793985,-0.404463
 03,-0.57885933,-0.00451849,0.00059283,0.00754101,-0.31598087,0.3960383
 9,0.56714417,-0.00266308,-0.00042525,-0.00109110,-0.00120562,-0.000321
 15,-0.00047115,0.00036710,0.00100838,0.00294321,0.00133763,0.01421181,
 0.01035953,-0.00124097,-0.00347351,0.00139593,0.00105552,-0.00561135,-
 0.00052144,0.00883521,-0.00374685,-0.01078320,0.00208852,0.00455355,-0
 .00506505,-0.00004719,0.00025860,0.00081225,-0.00316592,-0.00212724,0.
 00355475,0.00011010,-0.00244463,0.00045747,0.03592326,0.10150660,-0.15
 198137,-0.00261119,0.00092149,-0.00012888,-0.00195863,0.00136240,-0.00
 055949,0.00072154,-0.00283094,0.00116030,-0.03342914,0.10026890,-0.047
 39215,0.21414522,-0.00115257,0.00236072,-0.00155162,0.00187086,-0.0034
 3010,-0.00025642,0.00112821,0.00059941,0.00039181,-0.10073279,0.047921
 35,-0.14896855,0.21531424,-0.17767503,0.00058567,-0.00050786,0.0049509
 1,-0.00190121,0.00232380,0.00211006,-0.00230063,-0.00503938,0.00085631
 ,0.15117981,-0.21227724,0.17040344,-0.00114319,-0.00023610,-0.00054453
 ,-0.00289233,-0.00066192,-0.00106209,0.00081949,0.00039862,0.00100710,
 0.00008956,0.00033029,0.00001061,0.00047710,-0.00117246,0.00147007,0.0
 0146889,0.00166201,0.00036813,-0.00026609,-0.00499127,-0.00278106,-0.0
 0276336,-0.00052245,0.00043056,-0.00008923,-0.00016370,-0.00059244,0.0
 0022518,-0.00016284,0.00022190,-0.00021858,0.00183931,-0.00015443,-0.0
 0308641,0.00055588,0.00177731,0.01319344,-0.00876653,0.00830527,0.0008
 1994,-0.00075976,-0.00130009,0.00030604,0.00057486,-0.00014808,0.00009
 978,-0.00040426,-0.00022375,-0.00304807,0.00351214,-0.01030310,-0.0025
 9959,-0.00041908,0.00071502,0.02908894,-0.18901952,0.01601530,0.000431
 92,0.00014228,-0.00039687,0.00051707,0.00016416,-0.00009238,0.00044954
 ,0.00006511,0.00046959,0.00074049,0.00240014,-0.00196841,-0.02658806,0
 .00119697,0.00520780,0.00106250,-0.18579396,-0.32225763,0.05839959,-0.
 00035394,-0.00013343,-0.00022063,0.00184820,0.00010748,-0.00024089,0.0
 0035970,-0.00041151,0.00048345,-0.00248464,0.00276176,-0.00384408,0.18
 779363,0.31470872,-0.00077691,0.00002843,0.00209257,0.01636118,0.05719
 080,0.10402435,-0.00049591,-0.00013929,-0.00000466,-0.00031971,-0.0004
 4024,-0.00014896,0.00028907,-0.00004514,-0.00016003,-0.00007023,0.0016
 0610,-0.00132481,-0.01573019,-0.05977886,-0.10322560,-0.00489852,0.000
 76662,0.00227400,0.10368643,0.20563308,0.28879631,0.00059611,-0.000306
 82,-0.00043098,0.00084011,0.00095956,-0.00006148,0.00042611,-0.0002695
 1,-0.00054336,0.00044428,-0.00006064,-0.00631219,-0.00204197,-0.002576
 25,0.00074357,-0.09905467,-0.00237357,0.00438281,0.00196328,0.20564312
 ,-0.11076069,-0.46825032,-0.00023465,0.00006652,-0.00044217,0.00067299
 ,-0.00056935,-0.00061473,-0.00042081,0.00012978,-0.00007742,0.00198785
 ,-0.00025940,0.00913323,-0.00112807,0.00001689,0.00157795,-0.20414527,
 0.10699230,-0.00481422,0.00529767,0.00490276,0.28575387,-0.46283808,-0
 .46225957,-0.00046829,0.00000065,-0.00018894,0.00082498,-0.00129832,-0
 .00032191,-0.00005927,-0.00000282,-0.00026162,0.00223878,-0.00200504,0
 .00321500,0.00099038,0.00414001,-0.00125299,-0.28446175,0.45670741,0.4
 5616008\\@
 The archive entry for this job was punched.


 BLACK HOLES SUCK.
 Job cpu time:       0 days  7 hours 12 minutes 39.3 seconds.
 Elapsed time:       0 days  1 hours 48 minutes 28.1 seconds.
 File lengths (MBytes):  RWF=     61 Int=      0 D2E=      0 Chk=     76 Scr=      1
 Normal termination of Gaussian 16 at Tue Jun 23 17:24:12 2020.
