 Entering Gaussian System, Link 0=g16
 Input=ammonia.gjf
 Output=ammonia.log
 Initial command:
 /apps/gaussian/g16c01/g16/l1.exe "/jobfs/7627943.gadi-pbs/Gau-53422.inp" -scrdir="/jobfs/7627943.gadi-pbs/"
 Entering Link 1 = /apps/gaussian/g16c01/g16/l1.exe PID=     53423.
  
 Copyright (c) 1988-2019, Gaussian, Inc.  All Rights Reserved.
  
 This is part of the Gaussian(R) 16 program.  It is based on
 the Gaussian(R) 09 system (copyright 2009, Gaussian, Inc.),
 the Gaussian(R) 03 system (copyright 2003, Gaussian, Inc.),
 the Gaussian(R) 98 system (copyright 1998, Gaussian, Inc.),
 the Gaussian(R) 94 system (copyright 1995, Gaussian, Inc.),
 the Gaussian 92(TM) system (copyright 1992, Gaussian, Inc.),
 the Gaussian 90(TM) system (copyright 1990, Gaussian, Inc.),
 the Gaussian 88(TM) system (copyright 1988, Gaussian, Inc.),
 the Gaussian 86(TM) system (copyright 1986, Carnegie Mellon
 University), and the Gaussian 82(TM) system (copyright 1983,
 Carnegie Mellon University). Gaussian is a federally registered
 trademark of Gaussian, Inc.
  
 This software contains proprietary and confidential information,
 including trade secrets, belonging to Gaussian, Inc.
  
 This software is provided under written license and may be
 used, copied, transmitted, or stored only in accord with that
 written license.
  
 The following legend is applicable only to US Government
 contracts under FAR:
  
                    RESTRICTED RIGHTS LEGEND
  
 Use, reproduction and disclosure by the US Government is
 subject to restrictions as set forth in subparagraphs (a)
 and (c) of the Commercial Computer Software - Restricted
 Rights clause in FAR 52.227-19.
  
 Gaussian, Inc.
 340 Quinnipiac St., Bldg. 40, Wallingford CT 06492
  
  
 ---------------------------------------------------------------
 Warning -- This program may not be used in any manner that
 competes with the business of Gaussian, Inc. or will provide
 assistance to any competitor of Gaussian, Inc.  The licensee
 of this program is prohibited from giving any competitor of
 Gaussian, Inc. access to this program.  By using this program,
 the user acknowledges that Gaussian, Inc. is engaged in the
 business of creating and licensing software in the field of
 computational chemistry and represents and warrants to the
 licensee that it is not a competitor of Gaussian, Inc. and that
 it will not use this program in any manner prohibited above.
 ---------------------------------------------------------------
  

 Cite this work as:
 Gaussian 16, Revision C.01,
 M. J. Frisch, G. W. Trucks, H. B. Schlegel, G. E. Scuseria, 
 M. A. Robb, J. R. Cheeseman, G. Scalmani, V. Barone, 
 G. A. Petersson, H. Nakatsuji, X. Li, M. Caricato, A. V. Marenich, 
 J. Bloino, B. G. Janesko, R. Gomperts, B. Mennucci, H. P. Hratchian, 
 J. V. Ortiz, A. F. Izmaylov, J. L. Sonnenberg, D. Williams-Young, 
 F. Ding, F. Lipparini, F. Egidi, J. Goings, B. Peng, A. Petrone, 
 T. Henderson, D. Ranasinghe, V. G. Zakrzewski, J. Gao, N. Rega, 
 G. Zheng, W. Liang, M. Hada, M. Ehara, K. Toyota, R. Fukuda, 
 J. Hasegawa, M. Ishida, T. Nakajima, Y. Honda, O. Kitao, H. Nakai, 
 T. Vreven, K. Throssell, J. A. Montgomery, Jr., J. E. Peralta, 
 F. Ogliaro, M. J. Bearpark, J. J. Heyd, E. N. Brothers, K. N. Kudin, 
 V. N. Staroverov, T. A. Keith, R. Kobayashi, J. Normand, 
 K. Raghavachari, A. P. Rendell, J. C. Burant, S. S. Iyengar, 
 J. Tomasi, M. Cossi, J. M. Millam, M. Klene, C. Adamo, R. Cammi, 
 J. W. Ochterski, R. L. Martin, K. Morokuma, O. Farkas, 
 J. B. Foresman, and D. J. Fox, Gaussian, Inc., Wallingford CT, 2019.
 
 ******************************************
 Gaussian 16:  ES64L-G16RevC.01  3-Jul-2019
                23-Jun-2020 
 ******************************************
 %NprocShared=4
 Will use up to    4 processors via shared memory.
 %chk=checkpoint.chk
 -------------------------------------------------------
 # M06/Def2TZVP Freq=(anharmonic,ReadAnharm) Opt=CalcAll
 -------------------------------------------------------
 1/10=4,18=20,19=15,26=3,38=1,80=1/1,3;
 2/9=110,12=2,17=6,18=5,40=1/2;
 3/5=44,7=101,11=2,25=1,30=1,71=2,74=-54,140=1/1,2,3;
 4//1;
 5/5=2,38=5/2;
 8/6=4,10=90,11=11/1;
 11/6=1,8=1,9=11,15=111,16=1/1,2,10;
 10/6=1/2;
 6/7=2,8=2,9=2,10=2,18=1,28=1/1;
 7/10=1,25=1/1,2,3,16;
 1/10=4,18=20,19=15,26=3,80=1/3(3);
 2/9=110/2;
 7/8=1,9=1,25=1,44=-1,71=2,72=1/16;
 99//99;
 2/9=110/2;
 3/5=44,7=101,11=2,25=1,30=1,71=2,74=-54,140=1/1,2,3;
 4/5=5,16=3,69=1/1;
 5/5=2,38=5/2;
 8/6=4,10=90,11=11/1;
 11/6=1,8=1,9=11,15=111,16=1/1,2,10;
 10/6=1/2;
 7/10=1,25=1/1,2,3,16;
 1/10=4,18=20,19=15,26=3,80=1/3(-8);
 2/9=110/2;
 6/7=2,8=2,9=2,10=2,18=1,19=2,28=1/1;
 7/8=1,9=1,25=1,44=-1,71=1,72=1/16;
 99//99;
 ---------------------------------------------
 Anharmonic frequencies for ammonia using VPT2
 ---------------------------------------------
 Symbolic Z-matrix:
 Charge =  0 Multiplicity = 1
 N                    -0.3106    1.49398   0.00912 
 H                     0.70673   1.43731  -0.00479 
 H                    -0.6222    0.78704   0.67357 
 H                    -0.6222    1.17497  -0.90712 
 

 GradGradGradGradGradGradGradGradGradGradGradGradGradGradGradGradGradGrad
 Berny optimization.
 Initialization pass.
                           ----------------------------
                           !    Initial Parameters    !
                           ! (Angstroms and Degrees)  !
 --------------------------                            --------------------------
 ! Name  Definition              Value          Derivative Info.                !
 --------------------------------------------------------------------------------
 ! R1    R(1,2)                  1.019          calculate D2E/DX2 analytically  !
 ! R2    R(1,3)                  1.019          calculate D2E/DX2 analytically  !
 ! R3    R(1,4)                  1.019          calculate D2E/DX2 analytically  !
 ! A1    A(2,1,3)              105.9983         calculate D2E/DX2 analytically  !
 ! A2    A(2,1,4)              105.998          calculate D2E/DX2 analytically  !
 ! A3    A(3,1,4)              105.9983         calculate D2E/DX2 analytically  !
 ! D1    D(2,1,4,3)            112.3626         calculate D2E/DX2 analytically  !
 --------------------------------------------------------------------------------
 Trust Radius=3.00D-01 FncErr=1.00D-07 GrdErr=1.00D-06 EigMax=2.50D+02 EigMin=1.00D-04
 Number of steps in this run=     20 maximum allowed number of steps=    100.
 GradGradGradGradGradGradGradGradGradGradGradGradGradGradGradGradGradGrad

                          Input orientation:                          
 ---------------------------------------------------------------------
 Center     Atomic      Atomic             Coordinates (Angstroms)
 Number     Number       Type             X           Y           Z
 ---------------------------------------------------------------------
      1          7           0       -0.310600    1.493980    0.009120
      2          1           0        0.706730    1.437310   -0.004790
      3          1           0       -0.622200    0.787040    0.673570
      4          1           0       -0.622200    1.174970   -0.907120
 ---------------------------------------------------------------------
                    Distance matrix (angstroms):
                    1          2          3          4
     1  N    0.000000
     2  H    1.019002   0.000000
     3  H    1.018996   1.627599   0.000000
     4  H    1.018998   1.627598   1.627597   0.000000
 This structure is nearly, but not quite of a higher symmetry.
 Consider Symm=Loose if the higher symmetry is desired.
 Stoichiometry    H3N
 Framework group  C1[X(H3N)]
 Deg. of freedom     6
 Full point group                 C1      NOp   1
 Largest Abelian subgroup         C1      NOp   1
 Largest concise Abelian subgroup C1      NOp   1
                         Standard orientation:                         
 ---------------------------------------------------------------------
 Center     Atomic      Atomic             Coordinates (Angstroms)
 Number     Number       Type             X           Y           Z
 ---------------------------------------------------------------------
      1          7           0        0.010578   -0.114727   -0.026569
      2          1           0       -0.955712    0.164574    0.136650
      3          1           0        0.523637    0.143856    0.815012
      4          1           0        0.358032    0.494657   -0.765679
 ---------------------------------------------------------------------
 Rotational constants (GHZ):         293.6287795         293.6279697         189.2944034
 Standard basis: def2TZVP (5D, 7F)
 There are    54 symmetry adapted cartesian basis functions of A   symmetry.
 There are    49 symmetry adapted basis functions of A   symmetry.
    49 basis functions,    75 primitive gaussians,    54 cartesian basis functions
     5 alpha electrons        5 beta electrons
       nuclear repulsion energy        11.8809128700 Hartrees.
 NAtoms=    4 NActive=    4 NUniq=    4 SFac= 1.00D+00 NAtFMM=   60 NAOKFM=F Big=F
 Integral buffers will be    131072 words long.
 Raffenetti 2 integral format.
 Two-electron integral symmetry is turned on.
 One-electron integrals computed using PRISM.
   1 Symmetry operations used in ECPInt.
 ECPInt:  NShTT=     276 NPrTT=     772 LenC2=     277 LenP2D=     751.
 LDataN:  DoStor=T MaxTD1= 6 Len=  172
 NBasis=    49 RedAO= T EigKep=  5.05D-03  NBF=    49
 NBsUse=    49 1.00D-06 EigRej= -1.00D+00 NBFU=    49
 ExpMin= 1.03D-01 ExpMax= 1.97D+04 ExpMxC= 6.73D+02 IAcc=3 IRadAn=         5 AccDes= 0.00D+00
 Harris functional with IExCor= 1009 and IRadAn=       5 diagonalized for initial guess.
 HarFok:  IExCor= 1009 AccDes= 0.00D+00 IRadAn=         5 IDoV= 1 UseB2=F ITyADJ=14
 ICtDFT=  3500011 ScaDFX=  1.000000  1.000000  1.000000  1.000000
 FoFCou: FMM=F IPFlag=           0 FMFlag=      100000 FMFlg1=           0
         NFxFlg=           0 DoJE=T BraDBF=F KetDBF=T FulRan=T
         wScrn=  0.000000 ICntrl=       500 IOpCl=  0 I1Cent=   200000004 NGrid=           0
         NMat0=    1 NMatS0=      1 NMatT0=    0 NMatD0=    1 NMtDS0=    0 NMtDT0=    0
 Petite list used in FoFCou.
 Keep R1 ints in memory in canonical form, NReq=4262015.
 Requested convergence on RMS density matrix=1.00D-08 within 128 cycles.
 Requested convergence on MAX density matrix=1.00D-06.
 Requested convergence on             energy=1.00D-06.
 No special actions if energy rises.
 Integral accuracy reduced to 1.0D-05 until final iterations.
 Initial convergence to 1.0D-05 achieved.  Increase integral accuracy.
 SCF Done:  E(RM06) =  -56.5406705786     A.U. after   11 cycles
            NFock= 11  Conv=0.14D-08     -V/T= 2.0043
 DoSCS=F DFT=T ScalE2(SS,OS)=  1.000000  1.000000
 Range of M.O.s used for correlation:     1    49
 NBasis=    49 NAE=     5 NBE=     5 NFC=     0 NFV=     0
 NROrb=     49 NOA=     5 NOB=     5 NVA=    44 NVB=    44
   1 Symmetry operations used in ECPInt.
 ECPInt:  NShTT=     276 NPrTT=     772 LenC2=     277 LenP2D=     751.
 LDataN:  DoStor=T MaxTD1= 7 Len=  274
 Symmetrizing basis deriv contribution to polar:
 IMax=3 JMax=2 DiffMx= 0.00D+00
 G2DrvN: will do     5 centers at a time, making    1 passes.
 Calling FoFCou, ICntrl=  3107 FMM=F I1Cent=   0 AccDes= 0.00D+00.
 End of G2Drv F.D. properties file   721 does not exist.
 End of G2Drv F.D. properties file   722 does not exist.
 End of G2Drv F.D. properties file   788 does not exist.
          IDoAtm=1111
          Differentiating once with respect to electric field.
                with respect to dipole field.
          Differentiating once with respect to nuclear coordinates.
 Keep R1 ints in memory in canonical form, NReq=4251790.
          There are    15 degrees of freedom in the 1st order CPHF.  IDoFFX=6 NUNeed=     3.
     12 vectors produced by pass  0 Test12= 1.47D-15 6.67D-09 XBig12= 5.23D+00 1.29D+00.
 AX will form    12 AO Fock derivatives at one time.
     12 vectors produced by pass  1 Test12= 1.47D-15 6.67D-09 XBig12= 5.37D-01 3.16D-01.
     12 vectors produced by pass  2 Test12= 1.47D-15 6.67D-09 XBig12= 7.75D-03 3.02D-02.
     12 vectors produced by pass  3 Test12= 1.47D-15 6.67D-09 XBig12= 1.97D-05 2.05D-03.
     12 vectors produced by pass  4 Test12= 1.47D-15 6.67D-09 XBig12= 8.50D-08 9.97D-05.
      7 vectors produced by pass  5 Test12= 1.47D-15 6.67D-09 XBig12= 2.09D-10 5.31D-06.
      3 vectors produced by pass  6 Test12= 1.47D-15 6.67D-09 XBig12= 2.02D-13 1.29D-07.
 InvSVY:  IOpt=1 It=  1 EMax= 1.78D-15
 Solved reduced A of dimension    70 with    12 vectors.
 Isotropic polarizability for W=    0.000000       10.61 Bohr**3.
 End of Minotr F.D. properties file   721 does not exist.
 End of Minotr F.D. properties file   722 does not exist.
 End of Minotr F.D. properties file   788 does not exist.

 **********************************************************************

            Population analysis using the SCF Density.

 **********************************************************************

 Orbital symmetries:
       Occupied  (A) (A) (A) (A) (A)
       Virtual   (A) (A) (A) (A) (A) (A) (A) (A) (A) (A) (A) (A)
                 (A) (A) (A) (A) (A) (A) (A) (A) (A) (A) (A) (A)
                 (A) (A) (A) (A) (A) (A) (A) (A) (A) (A) (A) (A)
                 (A) (A) (A) (A) (A) (A) (A) (A)
 The electronic state is 1-A.
 Alpha  occ. eigenvalues --  -14.36154  -0.86514  -0.46689  -0.46689  -0.28215
 Alpha virt. eigenvalues --    0.02412   0.09404   0.09404   0.30234   0.30234
 Alpha virt. eigenvalues --    0.35695   0.41117   0.49414   0.49415   0.50136
 Alpha virt. eigenvalues --    0.91388   0.91388   1.14113   1.23145   1.23145
 Alpha virt. eigenvalues --    1.60078   1.71411   1.71411   1.75254   1.98378
 Alpha virt. eigenvalues --    2.00804   2.00804   2.29381   2.29382   2.30975
 Alpha virt. eigenvalues --    2.43451   2.46174   2.46175   2.98232   3.22013
 Alpha virt. eigenvalues --    3.22013   4.02963   4.27685   4.27686   4.38382
 Alpha virt. eigenvalues --    4.60645   4.60645   4.63413   4.86234   4.86235
 Alpha virt. eigenvalues --    5.27631   5.27633   5.59144  31.47485
          Condensed to atoms (all electrons):
               1          2          3          4
     1  N    6.536266   0.360613   0.360616   0.360615
     2  H    0.360613   0.491633  -0.029141  -0.029142
     3  H    0.360616  -0.029141   0.491632  -0.029142
     4  H    0.360615  -0.029142  -0.029142   0.491632
 Mulliken charges:
               1
     1  N   -0.618110
     2  H    0.206037
     3  H    0.206036
     4  H    0.206037
 Sum of Mulliken charges =   0.00000
 Mulliken charges with hydrogens summed into heavy atoms:
               1
     1  N    0.000000
 APT charges:
               1
     1  N   -0.453209
     2  H    0.150636
     3  H    0.151173
     4  H    0.151401
 Sum of APT charges =   0.00000
 APT charges with hydrogens summed into heavy atoms:
               1
     1  N    0.000000
 Electronic spatial extent (au):  <R**2>=             26.6576
 Charge=              0.0000 electrons
 Dipole moment (field-independent basis, Debye):
    X=             -0.1551    Y=              1.6824    Z=              0.3896  Tot=              1.7339
 Quadrupole moment (field-independent basis, Debye-Ang):
   XX=             -6.2423   YY=             -8.9563   ZZ=             -6.3659
   XY=              0.2524   XZ=              0.0584   YZ=             -0.6339
 Traceless Quadrupole moment (field-independent basis, Debye-Ang):
   XX=              0.9458   YY=             -1.7681   ZZ=              0.8223
   XY=              0.2524   XZ=              0.0584   YZ=             -0.6339
 Octapole moment (field-independent basis, Debye-Ang**2):
  XXX=             -1.0957  YYY=              1.6950  ZZZ=              0.4167  XYY=              0.0386
  XXY=              0.7646  XXZ=              0.4533  XZZ=              0.7404  YZZ=              0.9744
  YYZ=             -0.0747  XYZ=             -0.1448
 Hexadecapole moment (field-independent basis, Debye-Ang**3):
 XXXX=             -9.8753 YYYY=            -11.5145 ZZZZ=            -10.1455 XXXY=             -0.2168
 XXXZ=             -0.0788 YYYX=              0.0864 YYYZ=             -0.1920 ZZZX=              0.2399
 ZZZY=             -0.2564 XXYY=             -3.7400 XXZZ=             -3.3587 YYZZ=             -3.5532
 XXYZ=              0.0201 YYXZ=             -0.1215 ZZXY=              0.3010
 N-N= 1.188091286997D+01 E-N=-1.559283345583D+02  KE= 5.629687107773D+01
  Exact polarizability:      11.129       0.137       9.641       0.035      -0.352      11.060
 Approx polarizability:      13.437       0.235      10.907       0.054      -0.591      13.322
   1 Symmetry operations used in ECPInt.
 ECPInt:  NShTT=     276 NPrTT=     772 LenC2=     277 LenP2D=     751.
 LDataN:  DoStor=T MaxTD1= 8 Len=  415
 Calling FoFJK, ICntrl=    100127 FMM=F ISym2X=0 I1Cent= 0 IOpClX= 0 NMat=1 NMatS=1 NMatT=0.
 ***** Axes restored to original set *****
 -------------------------------------------------------------------
 Center     Atomic                   Forces (Hartrees/Bohr)
 Number     Number              X              Y              Z
 -------------------------------------------------------------------
      1        7           0.002656264   -0.007306186   -0.001788562
      2        1          -0.004823362    0.001083628    0.000265344
      3        1           0.001086837    0.003968146   -0.002750530
      4        1           0.001080260    0.002254413    0.004273748
 -------------------------------------------------------------------
 Cartesian Forces:  Max     0.007306186 RMS     0.003380725
 FormGI is forming the generalized inverse of G from B-inverse, IUseBI=4.

 GradGradGradGradGradGradGradGradGradGradGradGradGradGradGradGradGradGrad
 Berny optimization.
 Internal  Forces:  Max     0.004880816 RMS     0.003264130
 Search for a local minimum.
 Step number   1 out of a maximum of   20
 All quantities printed in internal units (Hartrees-Bohrs-Radians)
 Mixed Optimization -- RFO/linear search
 Second derivative matrix not updated -- analytic derivatives used.
 The second derivative matrix:
                          R1        R2        R3        A1        A2
           R1           0.43513
           R2          -0.00269   0.43474
           R3          -0.00267  -0.00269   0.43470
           A1           0.00821   0.00807  -0.00723   0.05054
           A2           0.01989  -0.00200   0.02232  -0.03960   0.13084
           A3          -0.00211   0.02000   0.02240  -0.03964  -0.01953
           D1           0.01685   0.01678   0.01101   0.02294   0.00310
                          A3        D1
           A3           0.13097
           D1           0.00310   0.02846
 ITU=  0
     Eigenvalues ---    0.04187   0.14207   0.14876   0.43425   0.43911
     Eigenvalues ---    0.43934
 RFO step:  Lambda=-2.92993815D-04 EMin= 4.18726055D-02
 Linear search not attempted -- first point.
 Iteration  1 RMS(Cart)=  0.01213165 RMS(Int)=  0.00041502
 Iteration  2 RMS(Cart)=  0.00027990 RMS(Int)=  0.00029460
 Iteration  3 RMS(Cart)=  0.00000002 RMS(Int)=  0.00029460
 Variable       Old X    -DE/DX   Delta X   Delta X   Delta X     New X
                                 (Linear)    (Quad)   (Total)
    R1        1.92563  -0.00488   0.00000  -0.01410  -0.01410   1.91154
    R2        1.92562  -0.00488   0.00000  -0.01411  -0.01411   1.91151
    R3        1.92563  -0.00488   0.00000  -0.01410  -0.01410   1.91153
    A1        1.85002   0.00022   0.00000   0.02001   0.01947   1.86949
    A2        1.85001   0.00098   0.00000   0.01988   0.01965   1.86967
    A3        1.85002   0.00098   0.00000   0.01990   0.01967   1.86969
    D1        1.96110   0.00109   0.00000   0.03953   0.04000   2.00109
         Item               Value     Threshold  Converged?
 Maximum Force            0.004881     0.000450     NO 
 RMS     Force            0.003264     0.000300     NO 
 Maximum Displacement     0.025464     0.001800     NO 
 RMS     Displacement     0.012137     0.001200     NO 
 Predicted change in Energy=-1.469890D-04
 GradGradGradGradGradGradGradGradGradGradGradGradGradGradGradGradGradGrad

                          Input orientation:                          
 ---------------------------------------------------------------------
 Center     Atomic      Atomic             Coordinates (Angstroms)
 Number     Number       Type             X           Y           Z
 ---------------------------------------------------------------------
      1          7           0       -0.305712    1.480505    0.005789
      2          1           0        0.705044    1.441768   -0.003648
      3          1           0       -0.623767    0.791558    0.674654
      4          1           0       -0.623834    1.179469   -0.906014
 ---------------------------------------------------------------------
                    Distance matrix (angstroms):
                    1          2          3          4
     1  N    0.000000
     2  H    1.011542   0.000000
     3  H    1.011528   1.627454   0.000000
     4  H    1.011538   1.627569   1.627571   0.000000
 Stoichiometry    H3N
 Framework group  C1[X(H3N)]
 Deg. of freedom     6
 Full point group                 C1      NOp   1
 Largest Abelian subgroup         C1      NOp   1
 Largest concise Abelian subgroup C1      NOp   1
                         Standard orientation:                         
 ---------------------------------------------------------------------
 Center     Atomic      Atomic             Coordinates (Angstroms)
 Number     Number       Type             X           Y           Z
 ---------------------------------------------------------------------
      1          7           0        0.000016   -0.000004   -0.112351
      2          1           0       -0.463047    0.817647    0.262131
      3          1           0       -0.476697   -0.809749    0.262143
      4          1           0        0.939629   -0.007871    0.262182
 ---------------------------------------------------------------------
 Rotational constants (GHZ):         300.2107039         300.1653399         189.3099512
 Standard basis: def2TZVP (5D, 7F)
 There are    54 symmetry adapted cartesian basis functions of A   symmetry.
 There are    49 symmetry adapted basis functions of A   symmetry.
    49 basis functions,    75 primitive gaussians,    54 cartesian basis functions
     5 alpha electrons        5 beta electrons
       nuclear repulsion energy        11.9614117586 Hartrees.
 NAtoms=    4 NActive=    4 NUniq=    4 SFac= 1.00D+00 NAtFMM=   60 NAOKFM=F Big=F
 Integral buffers will be    131072 words long.
 Raffenetti 2 integral format.
 Two-electron integral symmetry is turned on.
 One-electron integrals computed using PRISM.
   1 Symmetry operations used in ECPInt.
 ECPInt:  NShTT=     276 NPrTT=     772 LenC2=     277 LenP2D=     751.
 LDataN:  DoStor=T MaxTD1= 6 Len=  172
 NBasis=    49 RedAO= T EigKep=  4.94D-03  NBF=    49
 NBsUse=    49 1.00D-06 EigRej= -1.00D+00 NBFU=    49
 Initial guess from the checkpoint file:  "checkpoint.chk"
 B after Tr=     0.000000   -0.000000   -0.000000
         Rot=    0.639340   -0.539504    0.310807    0.451196 Ang=-100.51 deg.
 ExpMin= 1.03D-01 ExpMax= 1.97D+04 ExpMxC= 6.73D+02 IAcc=3 IRadAn=         5 AccDes= 0.00D+00
 Harris functional with IExCor= 1009 and IRadAn=       5 diagonalized for initial guess.
 HarFok:  IExCor= 1009 AccDes= 0.00D+00 IRadAn=         5 IDoV= 1 UseB2=F ITyADJ=14
 ICtDFT=  3500011 ScaDFX=  1.000000  1.000000  1.000000  1.000000
 FoFCou: FMM=F IPFlag=           0 FMFlag=      100000 FMFlg1=           0
         NFxFlg=           0 DoJE=T BraDBF=F KetDBF=T FulRan=T
         wScrn=  0.000000 ICntrl=       500 IOpCl=  0 I1Cent=   200000004 NGrid=           0
         NMat0=    1 NMatS0=      1 NMatT0=    0 NMatD0=    1 NMtDS0=    0 NMtDT0=    0
 Petite list used in FoFCou.
 Keep R1 ints in memory in canonical form, NReq=4262015.
 Requested convergence on RMS density matrix=1.00D-08 within 128 cycles.
 Requested convergence on MAX density matrix=1.00D-06.
 Requested convergence on             energy=1.00D-06.
 No special actions if energy rises.
 Integral accuracy reduced to 1.0D-05 until final iterations.
 Initial convergence to 1.0D-05 achieved.  Increase integral accuracy.
 SCF Done:  E(RM06) =  -56.5408167062     A.U. after   10 cycles
            NFock= 10  Conv=0.30D-08     -V/T= 2.0038
 DoSCS=F DFT=T ScalE2(SS,OS)=  1.000000  1.000000
 Range of M.O.s used for correlation:     1    49
 NBasis=    49 NAE=     5 NBE=     5 NFC=     0 NFV=     0
 NROrb=     49 NOA=     5 NOB=     5 NVA=    44 NVB=    44
   1 Symmetry operations used in ECPInt.
 ECPInt:  NShTT=     276 NPrTT=     772 LenC2=     277 LenP2D=     751.
 LDataN:  DoStor=T MaxTD1= 7 Len=  274
 Symmetrizing basis deriv contribution to polar:
 IMax=3 JMax=2 DiffMx= 0.00D+00
 G2DrvN: will do     5 centers at a time, making    1 passes.
 Calling FoFCou, ICntrl=  3107 FMM=F I1Cent=   0 AccDes= 0.00D+00.
 End of G2Drv F.D. properties file   721 does not exist.
 End of G2Drv F.D. properties file   722 does not exist.
 End of G2Drv F.D. properties file   788 does not exist.
          IDoAtm=1111
          Differentiating once with respect to electric field.
                with respect to dipole field.
          Differentiating once with respect to nuclear coordinates.
 Keep R1 ints in memory in canonical form, NReq=4251790.
          There are    15 degrees of freedom in the 1st order CPHF.  IDoFFX=6 NUNeed=     3.
     12 vectors produced by pass  0 Test12= 1.47D-15 6.67D-09 XBig12= 5.07D+00 1.30D+00.
 AX will form    12 AO Fock derivatives at one time.
     12 vectors produced by pass  1 Test12= 1.47D-15 6.67D-09 XBig12= 5.18D-01 3.24D-01.
     12 vectors produced by pass  2 Test12= 1.47D-15 6.67D-09 XBig12= 7.33D-03 2.88D-02.
     12 vectors produced by pass  3 Test12= 1.47D-15 6.67D-09 XBig12= 1.65D-05 1.83D-03.
     12 vectors produced by pass  4 Test12= 1.47D-15 6.67D-09 XBig12= 6.68D-08 9.08D-05.
      8 vectors produced by pass  5 Test12= 1.47D-15 6.67D-09 XBig12= 2.35D-10 6.42D-06.
      4 vectors produced by pass  6 Test12= 1.47D-15 6.67D-09 XBig12= 2.87D-13 1.74D-07.
      1 vectors produced by pass  7 Test12= 1.47D-15 6.67D-09 XBig12= 4.08D-16 7.36D-09.
 InvSVY:  IOpt=1 It=  1 EMax= 1.55D-15
 Solved reduced A of dimension    73 with    12 vectors.
 Isotropic polarizability for W=    0.000000       10.46 Bohr**3.
 End of Minotr F.D. properties file   721 does not exist.
 End of Minotr F.D. properties file   722 does not exist.
 End of Minotr F.D. properties file   788 does not exist.
   1 Symmetry operations used in ECPInt.
 ECPInt:  NShTT=     276 NPrTT=     772 LenC2=     277 LenP2D=     751.
 LDataN:  DoStor=T MaxTD1= 8 Len=  415
 Calling FoFJK, ICntrl=    100127 FMM=F ISym2X=0 I1Cent= 0 IOpClX= 0 NMat=1 NMatS=1 NMatT=0.
 ***** Axes restored to original set *****
 -------------------------------------------------------------------
 Center     Atomic                   Forces (Hartrees/Bohr)
 Number     Number              X              Y              Z
 -------------------------------------------------------------------
      1        7           0.000001507    0.000022225    0.000003609
      2        1           0.000158096    0.000052599    0.000001975
      3        1          -0.000089363   -0.000074164    0.000133876
      4        1          -0.000070240   -0.000000660   -0.000139460
 -------------------------------------------------------------------
 Cartesian Forces:  Max     0.000158096 RMS     0.000083699
 FormGI is forming the generalized inverse of G from B-inverse, IUseBI=4.

 GradGradGradGradGradGradGradGradGradGradGradGradGradGradGradGradGradGrad
 Berny optimization.
 Using GEDIIS/GDIIS optimizer.
 Internal  Forces:  Max     0.000167250 RMS     0.000111003
 Search for a local minimum.
 Step number   2 out of a maximum of   20
 All quantities printed in internal units (Hartrees-Bohrs-Radians)
 Mixed Optimization -- En-DIIS/RFO-DIIS
 Second derivative matrix not updated -- analytic derivatives used.
 DE= -1.46D-04 DEPred=-1.47D-04 R= 9.94D-01
 TightC=F SS=  1.41D+00  RLast= 5.79D-02 DXNew= 5.0454D-01 1.7361D-01
 Trust test= 9.94D-01 RLast= 5.79D-02 DXMaxT set to 3.00D-01
 The second derivative matrix:
                          R1        R2        R3        A1        A2
           R1           0.45585
           R2          -0.00271   0.45590
           R3          -0.00275  -0.00276   0.45635
           A1           0.00779   0.00780  -0.00798   0.05211
           A2           0.01896  -0.00270   0.02159  -0.04092   0.12615
           A3          -0.00271   0.01898   0.02163  -0.04092  -0.02184
           D1           0.01678   0.01680   0.01158   0.02068   0.00300
                          A3        D1
           A3           0.12616
           D1           0.00300   0.02669
 ITU=  1  0
 Use linear search instead of GDIIS.
     Eigenvalues ---    0.03796   0.13948   0.14650   0.45461   0.46009
     Eigenvalues ---    0.46058
 RFO step:  Lambda=-3.40977311D-07 EMin= 3.79564127D-02
 Quintic linear search produced a step of -0.00342.
 Iteration  1 RMS(Cart)=  0.00061186 RMS(Int)=  0.00000068
 Iteration  2 RMS(Cart)=  0.00000030 RMS(Int)=  0.00000058
 Variable       Old X    -DE/DX   Delta X   Delta X   Delta X     New X
                                 (Linear)    (Quad)   (Total)
    R1        1.91154   0.00016   0.00005   0.00020   0.00024   1.91178
    R2        1.91151   0.00017   0.00005   0.00022   0.00027   1.91178
    R3        1.91153   0.00015   0.00005   0.00019   0.00023   1.91176
    A1        1.86949   0.00002  -0.00007   0.00093   0.00087   1.87036
    A2        1.86967   0.00005  -0.00007   0.00077   0.00070   1.87037
    A3        1.86969   0.00005  -0.00007   0.00077   0.00071   1.87040
    D1        2.00109   0.00008  -0.00014   0.00182   0.00168   2.00277
         Item               Value     Threshold  Converged?
 Maximum Force            0.000167     0.000450     YES
 RMS     Force            0.000111     0.000300     YES
 Maximum Displacement     0.000794     0.001800     YES
 RMS     Displacement     0.000612     0.001200     YES
 Predicted change in Energy=-1.707976D-07
 Optimization completed.
    -- Stationary point found.
                           ----------------------------
                           !   Optimized Parameters   !
                           ! (Angstroms and Degrees)  !
 --------------------------                            --------------------------
 ! Name  Definition              Value          Derivative Info.                !
 --------------------------------------------------------------------------------
 ! R1    R(1,2)                  1.0115         -DE/DX =    0.0002              !
 ! R2    R(1,3)                  1.0115         -DE/DX =    0.0002              !
 ! R3    R(1,4)                  1.0115         -DE/DX =    0.0001              !
 ! A1    A(2,1,3)              107.1139         -DE/DX =    0.0                 !
 ! A2    A(2,1,4)              107.1241         -DE/DX =    0.0001              !
 ! A3    A(3,1,4)              107.1254         -DE/DX =    0.0001              !
 ! D1    D(2,1,4,3)            114.6543         -DE/DX =    0.0001              !
 --------------------------------------------------------------------------------
 GradGradGradGradGradGradGradGradGradGradGradGradGradGradGradGradGradGrad

                          Input orientation:                          
 ---------------------------------------------------------------------
 Center     Atomic      Atomic             Coordinates (Angstroms)
 Number     Number       Type             X           Y           Z
 ---------------------------------------------------------------------
      1          7           0       -0.305712    1.480505    0.005789
      2          1           0        0.705044    1.441768   -0.003648
      3          1           0       -0.623767    0.791558    0.674654
      4          1           0       -0.623834    1.179469   -0.906014
 ---------------------------------------------------------------------
                    Distance matrix (angstroms):
                    1          2          3          4
     1  N    0.000000
     2  H    1.011542   0.000000
     3  H    1.011528   1.627454   0.000000
     4  H    1.011538   1.627569   1.627571   0.000000
 Stoichiometry    H3N
 Framework group  C1[X(H3N)]
 Deg. of freedom     6
 Full point group                 C1      NOp   1
 Largest Abelian subgroup         C1      NOp   1
 Largest concise Abelian subgroup C1      NOp   1
                         Standard orientation:                         
 ---------------------------------------------------------------------
 Center     Atomic      Atomic             Coordinates (Angstroms)
 Number     Number       Type             X           Y           Z
 ---------------------------------------------------------------------
      1          7           0        0.000016   -0.000004   -0.112351
      2          1           0       -0.463047    0.817647    0.262131
      3          1           0       -0.476697   -0.809749    0.262143
      4          1           0        0.939629   -0.007871    0.262182
 ---------------------------------------------------------------------
 Rotational constants (GHZ):         300.2107039         300.1653399         189.3099512

 **********************************************************************

            Population analysis using the SCF Density.

 **********************************************************************

 Orbital symmetries:
       Occupied  (A) (A) (A) (A) (A)
       Virtual   (A) (A) (A) (A) (A) (A) (A) (A) (A) (A) (A) (A)
                 (A) (A) (A) (A) (A) (A) (A) (A) (A) (A) (A) (A)
                 (A) (A) (A) (A) (A) (A) (A) (A) (A) (A) (A) (A)
                 (A) (A) (A) (A) (A) (A) (A) (A)
 The electronic state is 1-A.
 Alpha  occ. eigenvalues --  -14.35835  -0.86613  -0.47026  -0.47023  -0.27958
 Alpha virt. eigenvalues --    0.02502   0.09450   0.09450   0.30394   0.30396
 Alpha virt. eigenvalues --    0.35735   0.41362   0.49384   0.49689   0.49689
 Alpha virt. eigenvalues --    0.91638   0.91641   1.15437   1.22722   1.22723
 Alpha virt. eigenvalues --    1.59894   1.71835   1.71838   1.74569   1.98117
 Alpha virt. eigenvalues --    2.00291   2.00291   2.30252   2.32895   2.32897
 Alpha virt. eigenvalues --    2.42501   2.47203   2.47204   2.98217   3.20738
 Alpha virt. eigenvalues --    3.20757   4.05063   4.29208   4.29212   4.40492
 Alpha virt. eigenvalues --    4.59953   4.59955   4.64202   4.86912   4.86912
 Alpha virt. eigenvalues --    5.28080   5.28097   5.63032  31.48408
          Condensed to atoms (all electrons):
               1          2          3          4
     1  N    6.523987   0.364627   0.364630   0.364634
     2  H    0.364627   0.487620  -0.029105  -0.029097
     3  H    0.364630  -0.029105   0.487617  -0.029096
     4  H    0.364634  -0.029097  -0.029096   0.487590
 Mulliken charges:
               1
     1  N   -0.617877
     2  H    0.205955
     3  H    0.205954
     4  H    0.205969
 Sum of Mulliken charges =  -0.00000
 Mulliken charges with hydrogens summed into heavy atoms:
               1
     1  N   -0.000000
 APT charges:
               1
     1  N   -0.472031
     2  H    0.157488
     3  H    0.157504
     4  H    0.157040
 Sum of APT charges =   0.00000
 APT charges with hydrogens summed into heavy atoms:
               1
     1  N    0.000000
 Electronic spatial extent (au):  <R**2>=             26.4900
 Charge=             -0.0000 electrons
 Dipole moment (field-independent basis, Debye):
    X=             -0.0002    Y=              0.0000    Z=              1.6772  Tot=              1.6772
 Quadrupole moment (field-independent basis, Debye-Ang):
   XX=             -6.1683   YY=             -6.1688   ZZ=             -9.1552
   XY=              0.0000   XZ=              0.0001   YZ=             -0.0000
 Traceless Quadrupole moment (field-independent basis, Debye-Ang):
   XX=              0.9958   YY=              0.9952   ZZ=             -1.9911
   XY=              0.0000   XZ=              0.0001   YZ=             -0.0000
 Octapole moment (field-independent basis, Debye-Ang**2):
  XXX=              0.9084  YYY=              0.0229  ZZZ=              1.6239  XYY=             -0.9086
  XXY=             -0.0228  XXZ=              0.9082  XZZ=             -0.0000  YZZ=             -0.0000
  YYZ=              0.9080  XYZ=              0.0000
 Hexadecapole moment (field-independent basis, Debye-Ang**3):
 XXXX=             -9.8326 YYYY=             -9.8328 ZZZZ=            -11.4891 XXXY=              0.0000
 XXXZ=              0.3323 YYYX=             -0.0000 YYYZ=              0.0083 ZZZX=              0.0001
 ZZZY=             -0.0000 XXYY=             -3.2775 XXZZ=             -3.6362 YYZZ=             -3.6362
 XXYZ=             -0.0084 YYXZ=             -0.3322 ZZXY=              0.0000
 N-N= 1.196141175857D+01 E-N=-1.561100418221D+02  KE= 5.632615693371D+01
  Exact polarizability:      10.978       0.000      10.958       0.007      -0.000       9.433
 Approx polarizability:      13.218      -0.000      13.217      -0.000       0.000      10.545
 Rotating derivatives to standard orientation.
 Full mass-weighted force constant matrix:
 Low frequencies ---  -60.7250  -43.5730  -31.7288   -0.0013   -0.0010   -0.0004
 Low frequencies --- 1003.2073 1649.5517 1650.1134
 Diagonal vibrational polarizability:
        0.2194991       0.2182756       4.6852514
 Harmonic frequencies (cm**-1), IR intensities (KM/Mole), Raman scattering
 activities (A**4/AMU), depolarization ratios for plane and unpolarized
 incident light, reduced masses (AMU), force constants (mDyne/A),
 and normal coordinates:
                      1                      2                      3
                      A                      A                      A
 Frequencies --   1003.2033              1649.5514              1650.1123
 Red. masses --      1.1818                 1.0667                 1.0667
 Frc consts  --      0.7008                 1.7102                 1.7113
 IR Inten    --    175.1825                21.3209                21.2447
  Atom  AN      X      Y      Z        X      Y      Z        X      Y      Z
     1   7     0.00  -0.00  -0.12    -0.07   0.00  -0.00    -0.00  -0.07   0.00
     2   1     0.10  -0.18   0.54     0.53   0.38  -0.13     0.41   0.10   0.21
     3   1     0.10   0.18   0.54     0.55  -0.40  -0.12    -0.37   0.07  -0.22
     4   1    -0.20   0.00   0.54    -0.14  -0.03   0.25     0.00   0.76   0.01
                      4                      5                      6
                      A                      A                      A
 Frequencies --   3479.9503              3618.6395              3619.9573
 Red. masses --      1.0258                 1.0901                 1.0900
 Frc consts  --      7.3194                 8.4100                 8.4159
 IR Inten    --      0.4312                 4.0444                 4.1911
  Atom  AN      X      Y      Z        X      Y      Z        X      Y      Z
     1   7     0.00  -0.00  -0.04     0.00  -0.08   0.00    -0.08  -0.00  -0.00
     2   1    -0.27   0.48   0.17    -0.34   0.58   0.26     0.16  -0.31  -0.14
     3   1    -0.28  -0.48   0.17     0.34   0.55  -0.25     0.19   0.36  -0.16
     4   1     0.55  -0.00   0.17    -0.03  -0.02  -0.01     0.76  -0.01   0.29

 -------------------
 - Thermochemistry -
 -------------------
 Temperature   298.150 Kelvin.  Pressure   1.00000 Atm.
 Atom     1 has atomic number  7 and mass  14.00307
 Atom     2 has atomic number  1 and mass   1.00783
 Atom     3 has atomic number  1 and mass   1.00783
 Atom     4 has atomic number  1 and mass   1.00783
 Molecular mass:    17.02655 amu.
 Principal axes and moments of inertia in atomic units:
                           1         2         3
     Eigenvalues --     6.01158   6.01249   9.53326
           X            1.00000   0.00000   0.00001
           Y           -0.00000   1.00000  -0.00000
           Z           -0.00001   0.00000   1.00000
 This molecule is an asymmetric top.
 Rotational symmetry number  1.
 Rotational temperatures (Kelvin)     14.40784    14.40567     9.08545
 Rotational constants (GHZ):         300.21070   300.16534   189.30995
 Zero-point vibrational energy      89848.0 (Joules/Mol)
                                   21.47419 (Kcal/Mol)
 Vibrational temperatures:   1443.39  2373.34  2374.14  5006.87  5206.42
          (Kelvin)           5208.31
 
 Zero-point correction=                           0.034221 (Hartree/Particle)
 Thermal correction to Energy=                    0.037095
 Thermal correction to Enthalpy=                  0.038040
 Thermal correction to Gibbs Free Energy=         0.015160
 Sum of electronic and zero-point Energies=            -56.506595
 Sum of electronic and thermal Energies=               -56.503721
 Sum of electronic and thermal Enthalpies=             -56.502777
 Sum of electronic and thermal Free Energies=          -56.525656
 
                     E (Thermal)             CV                S
                      KCal/Mol        Cal/Mol-Kelvin    Cal/Mol-Kelvin
 Total                   23.278              6.423             48.153
 Electronic               0.000              0.000              0.000
 Translational            0.889              2.981             34.441
 Rotational               0.889              2.981             13.608
 Vibrational             21.500              0.462              0.105
                       Q            Log10(Q)             Ln(Q)
 Total Bot       0.106338D-06         -6.973313        -16.056646
 Total V=0       0.585300D+09          8.767378         20.187635
 Vib (Bot)       0.183255D-15        -15.736944        -36.235654
 Vib (V=0)       0.100866D+01          0.003747          0.008627
 Electronic      0.100000D+01          0.000000          0.000000
 Translational   0.276149D+07          6.441144         14.831282
 Rotational      0.210130D+03          2.322488          5.347726
 ***** Axes restored to original set *****
 -------------------------------------------------------------------
 Center     Atomic                   Forces (Hartrees/Bohr)
 Number     Number              X              Y              Z
 -------------------------------------------------------------------
      1        7           0.000001507    0.000022225    0.000003609
      2        1           0.000158096    0.000052599    0.000001975
      3        1          -0.000089363   -0.000074164    0.000133876
      4        1          -0.000070240   -0.000000660   -0.000139460
 -------------------------------------------------------------------
 Cartesian Forces:  Max     0.000158096 RMS     0.000083699

 ----------------------------------------------------------------------

 Electric dipole moment (input orientation):
 (Debye = 10**-18 statcoulomb cm , SI units = C m)
                  (au)            (Debye)         (10**-30 SI)
   Tot        0.659863D+00      0.167721D+01      0.559455D+01
   x          0.219976D+00      0.559123D+00      0.186503D+01
   y         -0.604195D+00     -0.153571D+01     -0.512258D+01
   z         -0.148252D+00     -0.376820D+00     -0.125694D+01

 Dipole polarizability, Alpha (input orientation).
 (esu units = cm**3 , SI units = C**2 m**2 J**-1)
 Alpha(0;0):
               (au)            (10**-24 esu)      (10**-40 SI)
   iso        0.104564D+02      0.154948D+01      0.172403D+01
   aniso      0.153498D+01      0.227460D+00      0.253083D+00
   xx         0.107905D+02      0.159898D+01      0.177911D+01
   yx         0.468318D+00      0.693976D-01      0.772152D-01
   yy         0.967911D+01      0.143430D+01      0.159587D+01
   zx         0.120734D+00      0.178909D-01      0.199063D-01
   zy        -0.308812D+00     -0.457612D-01     -0.509162D-01
   zz         0.108996D+02      0.161516D+01      0.179711D+01

 ----------------------------------------------------------------------

 Dipole orientation:
     7          0.17568091         -0.72844763         -2.75676878
     1          1.88821465         -1.19775625         -2.04898804
     1         -0.27394593          0.98934286         -2.04902453
     1         -1.08712652         -1.97687414         -2.04917117

 Electric dipole moment (dipole orientation):
 (Debye = 10**-18 statcoulomb cm , SI units = C m)
                  (au)            (Debye)         (10**-30 SI)
   Tot        0.659863D+00      0.167721D+01      0.559455D+01
   x          0.000000D+00      0.000000D+00      0.000000D+00
   y          0.000000D+00      0.000000D+00      0.000000D+00
   z          0.659863D+00      0.167721D+01      0.559455D+01

 Dipole polarizability, Alpha (dipole orientation).
 (esu units = cm**3 , SI units = C**2 m**2 J**-1)
 Alpha(0;0):
               (au)            (10**-24 esu)      (10**-40 SI)
   iso        0.104564D+02      0.154948D+01      0.172403D+01
   aniso      0.153498D+01      0.227460D+00      0.253083D+00
   xx         0.109677D+02      0.162524D+01      0.180833D+01
   yx         0.977663D-02      0.144875D-02      0.161195D-02
   yy         0.109683D+02      0.162534D+01      0.180843D+01
   zx        -0.522721D-02     -0.774593D-03     -0.861851D-03
   zy        -0.515717D-02     -0.764213D-03     -0.850302D-03
   zz         0.943318D+01      0.139785D+01      0.155532D+01

 ----------------------------------------------------------------------
 Unable to Open any file for archive entry.
 1\1\GINC-GADI-CPU-CLX-1411\Freq\RM06\def2TZVP\H3N1\PK8622\23-Jun-2020\
 0\\# M06/Def2TZVP Freq=(anharmonic,ReadAnharm) Opt=CalcAll\\Anharmonic
  frequencies for ammonia using VPT2\\0,1\N,-0.305712473,1.4805052545,0
 .0057888839\H,0.7050435933,1.4417676676,-0.0036482426\H,-0.6237673595,
 0.7915576871,0.674653782\H,-0.6238337608,1.1794693908,-0.9060144234\\V
 ersion=ES64L-G16RevC.01\State=1-A\HF=-56.5408167\RMSD=2.957e-09\RMSF=8
 .370e-05\ZeroPoint=0.0342213\Thermal=0.0370955\ETot=-56.5037212\HTot=-
 56.502777\GTot=-56.5256563\Dipole=0.219976,-0.6041949,-0.1482523\Dipol
 eDeriv=-0.4220494,0.0684427,0.0154749,0.0693054,-0.5848658,-0.044665,0
 .0162694,-0.0463502,-0.409179,0.0312948,0.0285615,0.0082507,0.0775003,
 0.2625899,0.0218808,0.0191348,0.0218206,0.1785798,0.1953944,-0.0468486
 ,-0.0197665,-0.0751325,0.1117012,0.1270426,-0.0108277,0.0865895,0.1654
 155,0.1953602,-0.0501556,-0.0039591,-0.0716732,0.2105747,-0.1042584,-0
 .0245765,-0.06206,0.0651837\Polar=10.7904509,0.4683182,9.6791082,0.120
 7338,-0.3088119,10.8996482\PG=C01 [X(H3N1)]\NImag=0\\0.60056537,0.1354
 3867,0.27777941,0.03327006,-0.09133345,0.62766318,-0.43191439,-0.00965
 508,-0.00237533,0.45642009,0.04308529,-0.01372585,0.01102512,-0.001940
 73,0.02101618,0.01056253,0.01103723,-0.05599878,-0.00045295,-0.0089298
 7,0.05506988,-0.08418421,-0.08168389,0.06129052,-0.01231436,-0.0289967
 4,0.02928846,0.09248849,-0.11179867,-0.20804856,0.20811229,0.00675940,
 -0.00342135,-0.00283736,0.10005264,0.20799996,0.07004108,0.16378304,-0
 .20948161,-0.00249373,-0.00013759,0.00022761,-0.08094579,-0.19129873,0
 .23208862,-0.08446677,-0.04409970,-0.09218525,-0.01219135,-0.01214782,
 -0.03939804,0.00401007,0.00498663,0.01339845,0.09264805,-0.06672530,-0
 .05600500,-0.12780396,0.00483641,-0.00386897,0.00073000,0.01062799,0.0
 0346995,0.02765328,0.05126089,0.05640401,-0.11387366,-0.08348682,-0.36
 218280,0.00532202,-0.00195766,0.00070129,-0.00963319,-0.01397621,-0.02
 283462,0.11818484,0.09942069,0.38431612\\-0.00000151,-0.00002223,-0.00
 000361,-0.00015810,-0.00005260,-0.00000198,0.00008936,0.00007416,-0.00
 013388,0.00007024,0.00000066,0.00013946\\\@
 The archive entry for this job was punched.


 ACHIEVEMENT--  THE MAN WHO ROWS THE BOAT GENERALLY 
                DOESN'T HAVE TIME TO ROCK IT.

                   -- FROM THE BACK OF A SUGAR PACKET
 Job cpu time:       0 days  0 hours  1 minutes 10.8 seconds.
 Elapsed time:       0 days  0 hours  0 minutes 18.1 seconds.
 File lengths (MBytes):  RWF=      6 Int=      0 D2E=      0 Chk=      1 Scr=      1
 Normal termination of Gaussian 16 at Tue Jun 23 13:18:22 2020.
 Link1:  Proceeding to internal job step number  2.
 ------------------------------------------------------------------
 #N Geom=AllCheck Guess=TCheck SCRF=Check GenChk RM06/def2TZVP Freq
 ------------------------------------------------------------------
 1/10=4,29=7,30=1,38=21,40=1,80=1/1,6,3;
 2/12=2,40=1/2;
 3/5=44,7=101,11=2,14=-4,25=1,30=1,70=2,71=2,74=-54,116=1,140=1/1,2,3;
 4/5=101,69=2/1;
 5/5=2,38=6,98=1/2;
 8/6=4,10=90,11=11/1;
 11/6=1,8=1,9=11,15=111,16=1/1,2,10;
 10/6=1,60=-2/2;
 6/7=2,8=2,9=2,10=2,28=1/1;
 7/10=1,25=1,71=2,72=1/1,2,3,16;
 1/38=20,80=1/6(3);
 7/8=1,25=202,44=-1,71=1,72=1,92=10/16,17;
 1/10=4,30=1,38=20,80=1/3;
 99//99;
 3/5=44,7=101,11=2,14=-2,25=1,30=1,70=5,71=2,74=-54,116=1,140=1/1,2,3;
 4/5=5,16=3,69=2/1;
 5/5=2,38=5,98=1/2;
 8/6=4,10=90,11=11/1;
 11/6=1,8=1,9=11,15=111,16=1/1,2,10;
 10/6=1,60=-2/2;
 6/7=2,8=2,9=2,10=2,28=1/1;
 7/7=1,10=1,25=1,71=1,72=1/1,2,3,16;
 1/38=20,80=1/6(-8);
 7/8=1,25=202,44=-1,71=1,72=1,92=10/16,17;
 1/10=4,30=1,38=20,80=1/3;
 99//99;
 Structure from the checkpoint file:  "checkpoint.chk"
 ---------------------------------------------
 Anharmonic frequencies for ammonia using VPT2
 ---------------------------------------------
 Charge =  0 Multiplicity = 1
 Redundant internal coordinates found in file.  (old form).
 N,0,-0.305712473,1.4805052545,0.0057888839
 H,0,0.7050435933,1.4417676676,-0.0036482426
 H,0,-0.6237673595,0.7915576871,0.674653782
 H,0,-0.6238337608,1.1794693908,-0.9060144234
 Recover connectivity data from disk.
 Numerical evaluation of third derivatives.
 Nuclear step= 0.010000 Angstroms, electric field step= 0.000333 atomic units, NStep=1.

 GradGradGradGradGradGradGradGradGradGradGradGradGradGradGradGradGradGrad
 Berny optimization.
 Initialization pass.
                           ----------------------------
                           !    Initial Parameters    !
                           ! (Angstroms and Degrees)  !
 --------------------------                            --------------------------
 ! Name  Definition              Value          Derivative Info.                !
 --------------------------------------------------------------------------------
 ! R1    R(1,2)                  1.0115         calculate D2E/DX2 analytically  !
 ! R2    R(1,3)                  1.0115         calculate D2E/DX2 analytically  !
 ! R3    R(1,4)                  1.0115         calculate D2E/DX2 analytically  !
 ! A1    A(2,1,3)              107.1139         calculate D2E/DX2 analytically  !
 ! A2    A(2,1,4)              107.1241         calculate D2E/DX2 analytically  !
 ! A3    A(3,1,4)              107.1254         calculate D2E/DX2 analytically  !
 ! D1    D(2,1,4,3)            114.6543         calculate D2E/DX2 analytically  !
 --------------------------------------------------------------------------------
 Trust Radius=3.00D-01 FncErr=1.00D-07 GrdErr=1.00D-07 EigMax=2.50D+02 EigMin=1.00D-04
 Number of steps in this run=      2 maximum allowed number of steps=      2.
 GradGradGradGradGradGradGradGradGradGradGradGradGradGradGradGradGradGrad

                          Input orientation:                          
 ---------------------------------------------------------------------
 Center     Atomic      Atomic             Coordinates (Angstroms)
 Number     Number       Type             X           Y           Z
 ---------------------------------------------------------------------
      1          7           0       -0.305712    1.480505    0.005789
      2          1           0        0.705044    1.441768   -0.003648
      3          1           0       -0.623767    0.791558    0.674654
      4          1           0       -0.623834    1.179469   -0.906014
 ---------------------------------------------------------------------
                    Distance matrix (angstroms):
                    1          2          3          4
     1  N    0.000000
     2  H    1.011542   0.000000
     3  H    1.011528   1.627454   0.000000
     4  H    1.011538   1.627569   1.627571   0.000000
 Stoichiometry    H3N
 Framework group  C1[X(H3N)]
 Deg. of freedom     6
 Full point group                 C1      NOp   1
 Largest Abelian subgroup         C1      NOp   1
 Largest concise Abelian subgroup C1      NOp   1
                         Standard orientation:                         
 ---------------------------------------------------------------------
 Center     Atomic      Atomic             Coordinates (Angstroms)
 Number     Number       Type             X           Y           Z
 ---------------------------------------------------------------------
      1          7           0        0.000016   -0.000004   -0.112351
      2          1           0       -0.463047    0.817647    0.262131
      3          1           0       -0.476697   -0.809749    0.262143
      4          1           0        0.939629   -0.007871    0.262182
 ---------------------------------------------------------------------
 Rotational constants (GHZ):         300.2107039         300.1653399         189.3099512
 Standard basis: def2TZVP (5D, 7F)
 There are    54 symmetry adapted cartesian basis functions of A   symmetry.
 There are    49 symmetry adapted basis functions of A   symmetry.
    49 basis functions,    75 primitive gaussians,    54 cartesian basis functions
     5 alpha electrons        5 beta electrons
       nuclear repulsion energy        11.9614117586 Hartrees.
 NAtoms=    4 NActive=    4 NUniq=    4 SFac= 1.00D+00 NAtFMM=   60 NAOKFM=F Big=F
 Integral buffers will be    131072 words long.
 Raffenetti 2 integral format.
 Two-electron integral symmetry is turned on.
 One-electron integrals computed using PRISM.
   1 Symmetry operations used in ECPInt.
 ECPInt:  NShTT=     276 NPrTT=     772 LenC2=     277 LenP2D=     751.
 LDataN:  DoStor=T MaxTD1= 6 Len=  172
 NBasis=    49 RedAO= T EigKep=  4.94D-03  NBF=    49
 NBsUse=    49 1.00D-06 EigRej= -1.00D+00 NBFU=    49
 Initial guess from the checkpoint file:  "checkpoint.chk"
 B after Tr=    -0.000000   -0.000000    0.000000
         Rot=    1.000000   -0.000000    0.000000    0.000000 Ang=   0.00 deg.
 Keep R1 ints in memory in canonical form, NReq=4262015.
 Requested convergence on RMS density matrix=1.00D-08 within 128 cycles.
 Requested convergence on MAX density matrix=1.00D-06.
 Requested convergence on             energy=1.00D-06.
 No special actions if energy rises.
 SCF Done:  E(RM06) =  -56.5408167062     A.U. after    1 cycles
            NFock=  1  Conv=0.36D-09     -V/T= 2.0038
 DoSCS=F DFT=T ScalE2(SS,OS)=  1.000000  1.000000
 Range of M.O.s used for correlation:     1    49
 NBasis=    49 NAE=     5 NBE=     5 NFC=     0 NFV=     0
 NROrb=     49 NOA=     5 NOB=     5 NVA=    44 NVB=    44
   1 Symmetry operations used in ECPInt.
 ECPInt:  NShTT=     276 NPrTT=     772 LenC2=     277 LenP2D=     751.
 LDataN:  DoStor=T MaxTD1= 7 Len=  274
 Symmetrizing basis deriv contribution to polar:
 IMax=3 JMax=2 DiffMx= 0.00D+00
 G2DrvN: will do     5 centers at a time, making    1 passes.
 Calling FoFCou, ICntrl=  3107 FMM=F I1Cent=   0 AccDes= 0.00D+00.
 End of G2Drv F.D. properties file   721 does not exist.
 End of G2Drv F.D. properties file   722 does not exist.
 End of G2Drv F.D. properties file   788 does not exist.
          IDoAtm=1111
          Differentiating once with respect to electric field.
                with respect to dipole field.
          Differentiating once with respect to nuclear coordinates.
 Keep R1 ints in memory in canonical form, NReq=4256513.
          There are    15 degrees of freedom in the 1st order CPHF.  IDoFFX=6 NUNeed=     3.
     12 vectors produced by pass  0 Test12= 1.47D-15 6.67D-09 XBig12= 5.07D+00 1.30D+00.
 AX will form    12 AO Fock derivatives at one time.
     12 vectors produced by pass  1 Test12= 1.47D-15 6.67D-09 XBig12= 5.19D-01 3.25D-01.
     12 vectors produced by pass  2 Test12= 1.47D-15 6.67D-09 XBig12= 7.17D-03 2.85D-02.
     12 vectors produced by pass  3 Test12= 1.47D-15 6.67D-09 XBig12= 1.64D-05 1.76D-03.
     12 vectors produced by pass  4 Test12= 1.47D-15 6.67D-09 XBig12= 6.77D-08 9.55D-05.
      7 vectors produced by pass  5 Test12= 1.47D-15 6.67D-09 XBig12= 2.24D-10 6.59D-06.
      4 vectors produced by pass  6 Test12= 1.47D-15 6.67D-09 XBig12= 3.22D-13 2.19D-07.
      1 vectors produced by pass  7 Test12= 1.47D-15 6.67D-09 XBig12= 4.58D-16 7.88D-09.
 InvSVY:  IOpt=1 It=  1 EMax= 1.67D-15
 Solved reduced A of dimension    72 with    12 vectors.
 Isotropic polarizability for W=    0.000000       10.45 Bohr**3.
 End of Minotr F.D. properties file   721 does not exist.
 End of Minotr F.D. properties file   722 does not exist.
 End of Minotr F.D. properties file   788 does not exist.

 **********************************************************************

            Population analysis using the SCF Density.

 **********************************************************************

 Orbital symmetries:
       Occupied  (A) (A) (A) (A) (A)
       Virtual   (A) (A) (A) (A) (A) (A) (A) (A) (A) (A) (A) (A)
                 (A) (A) (A) (A) (A) (A) (A) (A) (A) (A) (A) (A)
                 (A) (A) (A) (A) (A) (A) (A) (A) (A) (A) (A) (A)
                 (A) (A) (A) (A) (A) (A) (A) (A)
 The electronic state is 1-A.
 Alpha  occ. eigenvalues --  -14.35835  -0.86613  -0.47026  -0.47023  -0.27958
 Alpha virt. eigenvalues --    0.02502   0.09450   0.09450   0.30394   0.30396
 Alpha virt. eigenvalues --    0.35735   0.41362   0.49384   0.49689   0.49689
 Alpha virt. eigenvalues --    0.91638   0.91641   1.15437   1.22722   1.22723
 Alpha virt. eigenvalues --    1.59894   1.71835   1.71838   1.74569   1.98117
 Alpha virt. eigenvalues --    2.00291   2.00291   2.30252   2.32895   2.32897
 Alpha virt. eigenvalues --    2.42501   2.47203   2.47204   2.98217   3.20738
 Alpha virt. eigenvalues --    3.20757   4.05063   4.29208   4.29212   4.40492
 Alpha virt. eigenvalues --    4.59953   4.59955   4.64202   4.86912   4.86912
 Alpha virt. eigenvalues --    5.28080   5.28097   5.63032  31.48408
          Condensed to atoms (all electrons):
               1          2          3          4
     1  N    6.523987   0.364627   0.364630   0.364634
     2  H    0.364627   0.487620  -0.029105  -0.029097
     3  H    0.364630  -0.029105   0.487617  -0.029096
     4  H    0.364634  -0.029097  -0.029096   0.487590
 Mulliken charges:
               1
     1  N   -0.617877
     2  H    0.205955
     3  H    0.205954
     4  H    0.205969
 Sum of Mulliken charges =  -0.00000
 Mulliken charges with hydrogens summed into heavy atoms:
               1
     1  N   -0.000000
 APT charges:
               1
     1  N   -0.472230
     2  H    0.157384
     3  H    0.157394
     4  H    0.157452
 Sum of APT charges =   0.00000
 APT charges with hydrogens summed into heavy atoms:
               1
     1  N    0.000000
 Electronic spatial extent (au):  <R**2>=             26.4900
 Charge=             -0.0000 electrons
 Dipole moment (field-independent basis, Debye):
    X=             -0.0002    Y=              0.0000    Z=              1.6772  Tot=              1.6772
 Quadrupole moment (field-independent basis, Debye-Ang):
   XX=             -6.1683   YY=             -6.1688   ZZ=             -9.1552
   XY=              0.0000   XZ=              0.0001   YZ=             -0.0000
 Traceless Quadrupole moment (field-independent basis, Debye-Ang):
   XX=              0.9958   YY=              0.9952   ZZ=             -1.9911
   XY=              0.0000   XZ=              0.0001   YZ=             -0.0000
 Octapole moment (field-independent basis, Debye-Ang**2):
  XXX=              0.9084  YYY=              0.0229  ZZZ=              1.6239  XYY=             -0.9086
  XXY=             -0.0228  XXZ=              0.9082  XZZ=             -0.0000  YZZ=             -0.0000
  YYZ=              0.9080  XYZ=              0.0000
 Hexadecapole moment (field-independent basis, Debye-Ang**3):
 XXXX=             -9.8326 YYYY=             -9.8328 ZZZZ=            -11.4891 XXXY=              0.0000
 XXXZ=              0.3323 YYYX=             -0.0000 YYYZ=              0.0083 ZZZX=              0.0001
 ZZZY=             -0.0000 XXYY=             -3.2775 XXZZ=             -3.6362 YYZZ=             -3.6362
 XXYZ=             -0.0084 YYXZ=             -0.3322 ZZXY=              0.0000
 N-N= 1.196141175857D+01 E-N=-1.561100417621D+02  KE= 5.632615690178D+01
  Exact polarizability:      10.970      -0.000      10.968      -0.000       0.000       9.425
 Approx polarizability:      13.218      -0.000      13.217      -0.000       0.000      10.545
   1 Symmetry operations used in ECPInt.
 ECPInt:  NShTT=     276 NPrTT=     772 LenC2=     277 LenP2D=     751.
 LDataN:  DoStor=T MaxTD1= 8 Len=  415
 Calling FoFJK, ICntrl=    100127 FMM=F ISym2X=0 I1Cent= 0 IOpClX= 0 NMat=1 NMatS=1 NMatT=0.
 Full mass-weighted force constant matrix:
 Low frequencies ---  -60.8001  -45.9879    0.0002    0.0006    0.0008   30.0065
 Low frequencies --- 1003.2591 1649.5955 1650.0162
 Diagonal vibrational polarizability:
        0.2189257       0.2187616       4.6918068
 Harmonic frequencies (cm**-1), IR intensities (KM/Mole), Raman scattering
 activities (A**4/AMU), depolarization ratios for plane and unpolarized
 incident light, reduced masses (AMU), force constants (mDyne/A),
 and normal coordinates:
                      1                      2                      3
                      A                      A                      A
 Frequencies --   1003.2520              1649.5953              1650.0150
 Red. masses --      1.1818                 1.0667                 1.0667
 Frc consts  --      0.7009                 1.7102                 1.7111
 IR Inten    --    175.4417                21.2649                21.2683
  Atom  AN      X      Y      Z        X      Y      Z        X      Y      Z
     1   7     0.00  -0.00  -0.12    -0.07   0.00  -0.00    -0.00  -0.07   0.00
     2   1     0.10  -0.18   0.54     0.52   0.38  -0.13     0.42   0.10   0.21
     3   1     0.10   0.18   0.54     0.55  -0.40  -0.11    -0.36   0.07  -0.22
     4   1    -0.20   0.00   0.54    -0.14  -0.04   0.25    -0.00   0.76   0.01
                      4                      5                      6
                      A                      A                      A
 Frequencies --   3479.7586              3619.1519              3619.3891
 Red. masses --      1.0258                 1.0901                 1.0901
 Frc consts  --      7.3186                 8.4124                 8.4134
 IR Inten    --      0.4584                 4.1940                 4.1578
  Atom  AN      X      Y      Z        X      Y      Z        X      Y      Z
     1   7    -0.00  -0.00  -0.04    -0.08   0.02   0.00    -0.02  -0.08   0.00
     2   1    -0.27   0.48   0.17     0.24  -0.46  -0.20    -0.28   0.47   0.21
     3   1    -0.28  -0.47   0.17     0.09   0.20  -0.08     0.37   0.62  -0.28
     4   1     0.55  -0.00   0.17     0.74  -0.00   0.29     0.17  -0.02   0.07

 -------------------
 - Thermochemistry -
 -------------------
 Temperature   298.150 Kelvin.  Pressure   1.00000 Atm.
 Atom     1 has atomic number  7 and mass  14.00307
 Atom     2 has atomic number  1 and mass   1.00783
 Atom     3 has atomic number  1 and mass   1.00783
 Atom     4 has atomic number  1 and mass   1.00783
 Molecular mass:    17.02655 amu.
 Principal axes and moments of inertia in atomic units:
                           1         2         3
     Eigenvalues --     6.01158   6.01249   9.53326
           X            1.00000   0.00000   0.00001
           Y           -0.00000   1.00000  -0.00000
           Z           -0.00001   0.00000   1.00000
 This molecule is an asymmetric top.
 Rotational symmetry number  1.
 Rotational temperatures (Kelvin)     14.40784    14.40567     9.08545
 Rotational constants (GHZ):         300.21070   300.16534   189.30995
 Zero-point vibrational energy      89846.5 (Joules/Mol)
                                   21.47383 (Kcal/Mol)
 Vibrational temperatures:   1443.46  2373.40  2374.00  5006.60  5207.15
          (Kelvin)           5207.49
 
 Zero-point correction=                           0.034221 (Hartree/Particle)
 Thermal correction to Energy=                    0.037095
 Thermal correction to Enthalpy=                  0.038039
 Thermal correction to Gibbs Free Energy=         0.015160
 Sum of electronic and zero-point Energies=            -56.506596
 Sum of electronic and thermal Energies=               -56.503722
 Sum of electronic and thermal Enthalpies=             -56.502778
 Sum of electronic and thermal Free Energies=          -56.525657
 
                     E (Thermal)             CV                S
                      KCal/Mol        Cal/Mol-Kelvin    Cal/Mol-Kelvin
 Total                   23.277              6.423             48.153
 Electronic               0.000              0.000              0.000
 Translational            0.889              2.981             34.441
 Rotational               0.889              2.981             13.608
 Vibrational             21.500              0.462              0.105
                       Q            Log10(Q)             Ln(Q)
 Total Bot       0.106402D-06         -6.973049        -16.056039
 Total V=0       0.585299D+09          8.767378         20.187633
 Vib (Bot)       0.183366D-15        -15.736681        -36.235047
 Vib (V=0)       0.100866D+01          0.003746          0.008625
 Electronic      0.100000D+01          0.000000          0.000000
 Translational   0.276149D+07          6.441144         14.831282
 Rotational      0.210130D+03          2.322488          5.347726

     ==================================================
      Anharmonic Data: Displacement Vectors Definition
     ==================================================

 Framework definition based on atomic masses: C1  
 ***** Axes restored to original set *****
 -------------------------------------------------------------------
 Center     Atomic                   Forces (Hartrees/Bohr)
 Number     Number              X              Y              Z
 -------------------------------------------------------------------
      1        7           0.000001504    0.000022225    0.000003601
      2        1           0.000158098    0.000052598    0.000001975
      3        1          -0.000089363   -0.000074166    0.000133876
      4        1          -0.000070238   -0.000000657   -0.000139453
 -------------------------------------------------------------------
 Cartesian Forces:  Max     0.000158098 RMS     0.000083698
 FormGI is forming the generalized inverse of G from B-inverse, IUseBI=4.
 NDeriv=      6 NFrqRd=  0 NDerD0=      0 MskFDP=       0 MskDFD=       0 MskDF0=       0
 At 1st pt F.D. properties file   721 does not exist.
 At 1st pt F.D. properties file   722 does not exist.
 D2Numr ... symmetry will not be used.
 Standard basis: def2TZVP (5D, 7F)
    49 basis functions,    75 primitive gaussians,    54 cartesian basis functions
     5 alpha electrons        5 beta electrons
       nuclear repulsion energy        11.9644235129 Hartrees.
 NAtoms=    4 NActive=    4 NUniq=    4 SFac= 1.00D+00 NAtFMM=   60 NAOKFM=F Big=F
 Integral buffers will be    131072 words long.
 Raffenetti 2 integral format.
 Two-electron integral symmetry is turned off.
 One-electron integrals computed using PRISM.
   1 Symmetry operations used in ECPInt.
 ECPInt:  NShTT=     276 NPrTT=     772 LenC2=     277 LenP2D=     751.
 LDataN:  DoStor=T MaxTD1= 6 Len=  172
 NBasis=    49 RedAO= T EigKep=  4.94D-03  NBF=    49
 NBsUse=    49 1.00D-06 EigRej= -1.00D+00 NBFU=    49
 Initial guess from the checkpoint file:  "checkpoint.chk"
 B after Tr=     0.000000   -0.000000   -0.001387
         Rot=    1.000000    0.000000   -0.000000    0.000000 Ang=   0.00 deg.
 Keep R1 ints in memory in canonical form, NReq=4261889.
 Requested convergence on RMS density matrix=1.00D-08 within 128 cycles.
 Requested convergence on MAX density matrix=1.00D-06.
 Requested convergence on             energy=1.00D-06.
 No special actions if energy rises.
 SCF Done:  E(RM06) =  -56.5408115313     A.U. after    7 cycles
            NFock=  7  Conv=0.35D-08     -V/T= 2.0038
 DoSCS=F DFT=T ScalE2(SS,OS)=  1.000000  1.000000
 Range of M.O.s used for correlation:     1    49
 NBasis=    49 NAE=     5 NBE=     5 NFC=     0 NFV=     0
 NROrb=     49 NOA=     5 NOB=     5 NVA=    44 NVB=    44
   1 Symmetry operations used in ECPInt.
 ECPInt:  NShTT=     276 NPrTT=     772 LenC2=     277 LenP2D=     751.
 LDataN:  DoStor=T MaxTD1= 7 Len=  274
 Symmetrizing basis deriv contribution to polar:
 IMax=3 JMax=2 DiffMx= 0.00D+00
 G2DrvN: will do     5 centers at a time, making    1 passes.
 Calling FoFCou, ICntrl=  3107 FMM=F I1Cent=   0 AccDes= 0.00D+00.
 End of G2Drv F.D. properties file   721 does not exist.
 End of G2Drv F.D. properties file   722 does not exist.
 End of G2Drv F.D. properties file   788 does not exist.
          IDoAtm=1111
          Differentiating once with respect to electric field.
                with respect to dipole field.
          Differentiating once with respect to nuclear coordinates.
 Keep R1 ints in memory in canonical form, NReq=4256387.
          There are    15 degrees of freedom in the 1st order CPHF.  IDoFFX=6 NUNeed=     3.
     12 vectors produced by pass  0 Test12= 1.47D-15 6.67D-09 XBig12= 5.06D+00 1.29D+00.
 AX will form    12 AO Fock derivatives at one time.
     12 vectors produced by pass  1 Test12= 1.47D-15 6.67D-09 XBig12= 5.06D-01 3.22D-01.
     12 vectors produced by pass  2 Test12= 1.47D-15 6.67D-09 XBig12= 6.86D-03 2.72D-02.
     12 vectors produced by pass  3 Test12= 1.47D-15 6.67D-09 XBig12= 1.54D-05 1.67D-03.
     12 vectors produced by pass  4 Test12= 1.47D-15 6.67D-09 XBig12= 6.22D-08 9.21D-05.
      7 vectors produced by pass  5 Test12= 1.47D-15 6.67D-09 XBig12= 2.13D-10 6.62D-06.
      4 vectors produced by pass  6 Test12= 1.47D-15 6.67D-09 XBig12= 3.16D-13 2.14D-07.
      1 vectors produced by pass  7 Test12= 1.47D-15 6.67D-09 XBig12= 4.80D-16 8.02D-09.
 InvSVY:  IOpt=1 It=  1 EMax= 2.22D-15
 Solved reduced A of dimension    72 with    12 vectors.
 Isotropic polarizability for W=    0.000000       10.44 Bohr**3.
 End of Minotr F.D. properties file   721 does not exist.
 End of Minotr F.D. properties file   722 does not exist.
 End of Minotr F.D. properties file   788 does not exist.

 **********************************************************************

            Population analysis using the SCF Density.

 **********************************************************************

 Alpha  occ. eigenvalues --  -14.35789  -0.86561  -0.47080  -0.47077  -0.27864
 Alpha virt. eigenvalues --    0.02517   0.09450   0.09450   0.30424   0.30426
 Alpha virt. eigenvalues --    0.35746   0.41365   0.49094   0.49713   0.49714
 Alpha virt. eigenvalues --    0.91713   0.91715   1.15835   1.22673   1.22674
 Alpha virt. eigenvalues --    1.59648   1.71813   1.71817   1.74513   1.97950
 Alpha virt. eigenvalues --    2.00187   2.00188   2.29919   2.33938   2.33940
 Alpha virt. eigenvalues --    2.42060   2.47122   2.47123   2.97908   3.20065
 Alpha virt. eigenvalues --    3.20082   4.05695   4.29548   4.29552   4.40979
 Alpha virt. eigenvalues --    4.59800   4.59803   4.64474   4.86960   4.86961
 Alpha virt. eigenvalues --    5.27682   5.27698   5.63768  31.48518
          Condensed to atoms (all electrons):
               1          2          3          4
     1  N    6.524012   0.365199   0.365202   0.365206
     2  H    0.365199   0.486173  -0.028958  -0.028950
     3  H    0.365202  -0.028958   0.486170  -0.028950
     4  H    0.365206  -0.028950  -0.028950   0.486144
 Mulliken charges:
               1
     1  N   -0.619620
     2  H    0.206536
     3  H    0.206534
     4  H    0.206549
 Sum of Mulliken charges =  -0.00000
 Mulliken charges with hydrogens summed into heavy atoms:
               1
     1  N   -0.000000
 APT charges:
               1
     1  N   -0.476870
     2  H    0.158928
     3  H    0.158940
     4  H    0.159002
 Sum of APT charges =   0.00000
 APT charges with hydrogens summed into heavy atoms:
               1
     1  N    0.000000
 Electronic spatial extent (au):  <R**2>=             26.4839
 Charge=             -0.0000 electrons
 Dipole moment (field-independent basis, Debye):
    X=             -0.0002    Y=              0.0000    Z=              1.6567  Tot=              1.6567
 Quadrupole moment (field-independent basis, Debye-Ang):
   XX=             -6.1519   YY=             -6.1525   ZZ=             -9.1736
   XY=              0.0000   XZ=              0.0001   YZ=             -0.0000
 Traceless Quadrupole moment (field-independent basis, Debye-Ang):
   XX=              1.0074   YY=              1.0068   ZZ=             -2.0143
   XY=              0.0000   XZ=              0.0001   YZ=             -0.0000
 Octapole moment (field-independent basis, Debye-Ang**2):
  XXX=              0.9181  YYY=              0.0231  ZZZ=              1.6238  XYY=             -0.9183
  XXY=             -0.0231  XXZ=              0.9035  XZZ=             -0.0000  YZZ=             -0.0000
  YYZ=              0.9033  XYZ=              0.0000
 Hexadecapole moment (field-independent basis, Debye-Ang**3):
 XXXX=             -9.8135 YYYY=             -9.8137 ZZZZ=            -11.4722 XXXY=              0.0000
 XXXZ=              0.3290 YYYX=             -0.0000 YYYZ=              0.0083 ZZZX=              0.0001
 ZZZY=             -0.0000 XXYY=             -3.2711 XXZZ=             -3.6396 YYZZ=             -3.6396
 XXYZ=             -0.0083 YYXZ=             -0.3289 ZZXY=              0.0000
 N-N= 1.196442351294D+01 E-N=-1.561175408529D+02  KE= 5.632623237182D+01
  Exact polarizability:      10.958      -0.000      10.956      -0.000       0.000       9.402
 Approx polarizability:      13.200      -0.000      13.199      -0.000       0.000      10.502
   1 Symmetry operations used in ECPInt.
 ECPInt:  NShTT=     276 NPrTT=     772 LenC2=     277 LenP2D=     751.
 LDataN:  DoStor=T MaxTD1= 8 Len=  415
 Calling FoFJK, ICntrl=    100127 FMM=F ISym2X=0 I1Cent= 0 IOpClX= 0 NMat=1 NMatS=1 NMatT=0.
 -------------------------------------------------------------------
 Center     Atomic                   Forces (Hartrees/Bohr)
 Number     Number              X              Y              Z
 -------------------------------------------------------------------
      1        7          -0.000001126    0.000008387   -0.001061700
      2        1          -0.000001834    0.000024069    0.000349925
      3        1          -0.000007845   -0.000032846    0.000354229
      4        1           0.000010804    0.000000390    0.000357546
 -------------------------------------------------------------------
 Cartesian Forces:  Max     0.001061700 RMS     0.000354128
 NDeriv=      6 NFrqRd=  0 NDerD0=      0 MskFDP=       0 MskDFD=       0 MskDF0=       0
 Re-enter D2Numr:  normal mode      1 step-up   number 1
 Standard basis: def2TZVP (5D, 7F)
    49 basis functions,    75 primitive gaussians,    54 cartesian basis functions
     5 alpha electrons        5 beta electrons
       nuclear repulsion energy        11.9579914630 Hartrees.
 NAtoms=    4 NActive=    4 NUniq=    4 SFac= 1.00D+00 NAtFMM=   60 NAOKFM=F Big=F
 Integral buffers will be    131072 words long.
 Raffenetti 2 integral format.
 Two-electron integral symmetry is turned off.
 One-electron integrals computed using PRISM.
   1 Symmetry operations used in ECPInt.
 ECPInt:  NShTT=     276 NPrTT=     772 LenC2=     277 LenP2D=     751.
 LDataN:  DoStor=T MaxTD1= 6 Len=  172
 NBasis=    49 RedAO= T EigKep=  4.95D-03  NBF=    49
 NBsUse=    49 1.00D-06 EigRej= -1.00D+00 NBFU=    49
 Initial guess from the checkpoint file:  "checkpoint.chk"
 B after Tr=    -0.000000    0.000000    0.001387
         Rot=    1.000000   -0.000000    0.000000   -0.000000 Ang=   0.00 deg.
 Keep R1 ints in memory in canonical form, NReq=4261889.
 Requested convergence on RMS density matrix=1.00D-08 within 128 cycles.
 Requested convergence on MAX density matrix=1.00D-06.
 Requested convergence on             energy=1.00D-06.
 No special actions if energy rises.
 SCF Done:  E(RM06) =  -56.5408082798     A.U. after    7 cycles
            NFock=  7  Conv=0.35D-08     -V/T= 2.0038
 DoSCS=F DFT=T ScalE2(SS,OS)=  1.000000  1.000000
 Range of M.O.s used for correlation:     1    49
 NBasis=    49 NAE=     5 NBE=     5 NFC=     0 NFV=     0
 NROrb=     49 NOA=     5 NOB=     5 NVA=    44 NVB=    44
   1 Symmetry operations used in ECPInt.
 ECPInt:  NShTT=     276 NPrTT=     772 LenC2=     277 LenP2D=     751.
 LDataN:  DoStor=T MaxTD1= 7 Len=  274
 Symmetrizing basis deriv contribution to polar:
 IMax=3 JMax=2 DiffMx= 0.00D+00
 G2DrvN: will do     5 centers at a time, making    1 passes.
 Calling FoFCou, ICntrl=  3107 FMM=F I1Cent=   0 AccDes= 0.00D+00.
 End of G2Drv F.D. properties file   721 does not exist.
 End of G2Drv F.D. properties file   722 does not exist.
 End of G2Drv F.D. properties file   788 does not exist.
          IDoAtm=1111
          Differentiating once with respect to electric field.
                with respect to dipole field.
          Differentiating once with respect to nuclear coordinates.
 Keep R1 ints in memory in canonical form, NReq=4256387.
          There are    15 degrees of freedom in the 1st order CPHF.  IDoFFX=6 NUNeed=     3.
     12 vectors produced by pass  0 Test12= 1.47D-15 6.67D-09 XBig12= 5.09D+00 1.31D+00.
 AX will form    12 AO Fock derivatives at one time.
     12 vectors produced by pass  1 Test12= 1.47D-15 6.67D-09 XBig12= 5.33D-01 3.27D-01.
     12 vectors produced by pass  2 Test12= 1.47D-15 6.67D-09 XBig12= 7.50D-03 2.98D-02.
     12 vectors produced by pass  3 Test12= 1.47D-15 6.67D-09 XBig12= 1.77D-05 1.86D-03.
     12 vectors produced by pass  4 Test12= 1.47D-15 6.67D-09 XBig12= 7.47D-08 9.92D-05.
      7 vectors produced by pass  5 Test12= 1.47D-15 6.67D-09 XBig12= 2.38D-10 6.58D-06.
      4 vectors produced by pass  6 Test12= 1.47D-15 6.67D-09 XBig12= 3.31D-13 2.23D-07.
      1 vectors produced by pass  7 Test12= 1.47D-15 6.67D-09 XBig12= 4.38D-16 7.72D-09.
 InvSVY:  IOpt=1 It=  1 EMax= 1.67D-15
 Solved reduced A of dimension    72 with    12 vectors.
 Isotropic polarizability for W=    0.000000       10.47 Bohr**3.
 End of Minotr F.D. properties file   721 does not exist.
 End of Minotr F.D. properties file   722 does not exist.
 End of Minotr F.D. properties file   788 does not exist.

 **********************************************************************

            Population analysis using the SCF Density.

 **********************************************************************

 Alpha  occ. eigenvalues --  -14.35881  -0.86665  -0.46970  -0.46967  -0.28053
 Alpha virt. eigenvalues --    0.02486   0.09450   0.09450   0.30364   0.30366
 Alpha virt. eigenvalues --    0.35723   0.41356   0.49663   0.49664   0.49683
 Alpha virt. eigenvalues --    0.91564   0.91567   1.15029   1.22772   1.22773
 Alpha virt. eigenvalues --    1.60141   1.71860   1.71863   1.74633   1.98274
 Alpha virt. eigenvalues --    2.00399   2.00399   2.30585   2.31838   2.31841
 Alpha virt. eigenvalues --    2.42949   2.47280   2.47282   2.98540   3.21407
 Alpha virt. eigenvalues --    3.21426   4.04434   4.28860   4.28864   4.40001
 Alpha virt. eigenvalues --    4.60116   4.60118   4.63930   4.86855   4.86856
 Alpha virt. eigenvalues --    5.28468   5.28486   5.62268  31.48292
          Condensed to atoms (all electrons):
               1          2          3          4
     1  N    6.524038   0.364035   0.364039   0.364042
     2  H    0.364035   0.489081  -0.029252  -0.029244
     3  H    0.364039  -0.029252   0.489078  -0.029243
[...]
 Berny optimization.
 Internal  Forces:  Max     0.000167252 RMS     0.000111002
 Search for a local minimum.
 Step number   1 out of a maximum of    2
 All quantities printed in internal units (Hartrees-Bohrs-Radians)
 Second derivative matrix not updated -- analytic derivatives used.
 The second derivative matrix:
                          R1        R2        R3        A1        A2
           R1           0.45602
           R2          -0.00275   0.45608
           R3          -0.00277  -0.00278   0.45598
           A1           0.00775   0.00775  -0.00792   0.05211
           A2           0.01901  -0.00267   0.02157  -0.04092   0.12615
           A3          -0.00268   0.01903   0.02160  -0.04092  -0.02184
           D1           0.01677   0.01679   0.01163   0.02068   0.00300
                          A3        D1
           A3           0.12616
           D1           0.00301   0.02670
 ITU=  0
     Eigenvalues ---    0.03796   0.13949   0.14648   0.45467   0.46028
     Eigenvalues ---    0.46031
 Angle between quadratic step and forces=  57.57 degrees.
 Linear search not attempted -- first point.
 Iteration  1 RMS(Cart)=  0.00060904 RMS(Int)=  0.00000056
 Iteration  2 RMS(Cart)=  0.00000030 RMS(Int)=  0.00000044
 Variable       Old X    -DE/DX   Delta X   Delta X   Delta X     New X
                                 (Linear)    (Quad)   (Total)
    R1        1.91154   0.00016   0.00000   0.00024   0.00024   1.91178
    R2        1.91151   0.00017   0.00000   0.00027   0.00027   1.91178
    R3        1.91153   0.00015   0.00000   0.00023   0.00023   1.91176
    A1        1.86949   0.00002   0.00000   0.00086   0.00086   1.87035
    A2        1.86967   0.00005   0.00000   0.00070   0.00070   1.87037
    A3        1.86969   0.00005   0.00000   0.00070   0.00070   1.87039
    D1        2.00109   0.00008   0.00000   0.00167   0.00167   2.00276
         Item               Value     Threshold  Converged?
 Maximum Force            0.000167     0.000450     YES
 RMS     Force            0.000111     0.000300     YES
 Maximum Displacement     0.000790     0.001800     YES
 RMS     Displacement     0.000609     0.001200     YES
 Predicted change in Energy=-1.707559D-07
 Optimization completed.
    -- Stationary point found.
                           ----------------------------
                           !   Optimized Parameters   !
                           ! (Angstroms and Degrees)  !
 --------------------------                            --------------------------
 ! Name  Definition              Value          Derivative Info.                !
 --------------------------------------------------------------------------------
 ! R1    R(1,2)                  1.0115         -DE/DX =    0.0002              !
 ! R2    R(1,3)                  1.0115         -DE/DX =    0.0002              !
 ! R3    R(1,4)                  1.0115         -DE/DX =    0.0001              !
 ! A1    A(2,1,3)              107.1139         -DE/DX =    0.0                 !
 ! A2    A(2,1,4)              107.1241         -DE/DX =    0.0001              !
 ! A3    A(3,1,4)              107.1254         -DE/DX =    0.0001              !
 ! D1    D(2,1,4,3)            114.6543         -DE/DX =    0.0001              !
 --------------------------------------------------------------------------------
 GradGradGradGradGradGradGradGradGradGradGradGradGradGradGradGradGradGrad


 ----------------------------------------------------------------------

 Electric dipole moment (input orientation):
 (Debye = 10**-18 statcoulomb cm , SI units = C m)
                  (au)            (Debye)         (10**-30 SI)
   Tot        0.659863D+00      0.167721D+01      0.559456D+01
   x          0.219976D+00      0.559123D+00      0.186503D+01
   y         -0.604195D+00     -0.153571D+01     -0.512258D+01
   z         -0.148252D+00     -0.376820D+00     -0.125694D+01

 Dipole polarizability, Alpha (input orientation).
 (esu units = cm**3 , SI units = C**2 m**2 J**-1)
 Alpha(0;0):
               (au)            (10**-24 esu)      (10**-40 SI)
   iso        0.104545D+02      0.154919D+01      0.172371D+01
   aniso      0.154390D+01      0.228783D+00      0.254555D+00
   xx         0.107973D+02      0.159999D+01      0.178023D+01
   yx         0.470778D+00      0.697622D-01      0.776209D-01
   yy         0.967455D+01      0.143362D+01      0.159512D+01
   zx         0.116297D+00      0.172335D-01      0.191749D-01
   zy        -0.317773D+00     -0.470892D-01     -0.523938D-01
   zz         0.108915D+02      0.161396D+01      0.179577D+01

 ----------------------------------------------------------------------

 Dipole orientation:
     7          0.17568075         -0.72844781         -2.75676874
     1          1.88821455         -1.19775633         -2.04898808
     1         -0.27394609          0.98934271         -2.04902458
     1         -1.08712659         -1.97687431         -2.04917096

 Electric dipole moment (dipole orientation):
 (Debye = 10**-18 statcoulomb cm , SI units = C m)
                  (au)            (Debye)         (10**-30 SI)
   Tot        0.659863D+00      0.167721D+01      0.559456D+01
   x          0.000000D+00      0.000000D+00      0.000000D+00
   y          0.000000D+00      0.000000D+00      0.000000D+00
   z          0.659863D+00      0.167721D+01      0.559456D+01

 Dipole polarizability, Alpha (dipole orientation).
 (esu units = cm**3 , SI units = C**2 m**2 J**-1)
 Alpha(0;0):
               (au)            (10**-24 esu)      (10**-40 SI)
   iso        0.104545D+02      0.154919D+01      0.172371D+01
   aniso      0.154390D+01      0.228783D+00      0.254555D+00
   xx         0.109691D+02      0.162545D+01      0.180856D+01
   yx         0.818107D-03      0.121231D-03      0.134888D-03
   yy         0.109691D+02      0.162545D+01      0.180856D+01
   zx         0.302165D-03      0.447763D-04      0.498204D-04
   zy         0.207556D-03      0.307566D-04      0.342213D-04
   zz         0.942519D+01      0.139667D+01      0.155400D+01

 ----------------------------------------------------------------------
 Unable to Open any file for archive entry.
 1\1\GINC-GADI-CPU-CLX-1411\Freq\RM06\def2TZVP\H3N1\PK8622\23-Jun-2020\
 0\\#N Geom=AllCheck Guess=TCheck SCRF=Check GenChk RM06/def2TZVP Freq\
 \Anharmonic frequencies for ammonia using VPT2\\0,1\N,-0.305712473,1.4
 805052545,0.0057888839\H,0.7050435933,1.4417676676,-0.0036482426\H,-0.
 6237673595,0.7915576871,0.674653782\H,-0.6238337608,1.1794693908,-0.90
 60144234\\Version=ES64L-G16RevC.01\State=1-A\HF=-56.5408167\RMSD=3.615
 e-10\RMSF=8.370e-05\ZeroPoint=0.0342207\Thermal=0.0370949\ETot=-56.503
 7218\HTot=-56.5027776\GTot=-56.5256568\Dipole=0.219976,-0.6041949,-0.1
 482524\DipoleDeriv=-0.4224987,0.0682329,0.0165839,0.0682663,-0.5850385
 ,-0.0459213,0.0166187,-0.0459647,-0.4091533,0.0312837,0.0291043,0.0072
 51,0.0775955,0.2625013,0.0219522,0.0190489,0.0219717,0.1783666,0.19556
 76,-0.0467655,-0.019728,-0.0744992,0.1116206,0.1274158,-0.0116236,0.08
 67176,0.1649942,0.1956475,-0.0505717,-0.004107,-0.0713627,0.2109165,-0
 .1034467,-0.024044,-0.0627247,0.0657925\Polar=10.7972956,0.4707785,9.6
 745522,0.1162975,-0.3177735,10.8915256\Quadrupole=0.4933512,-1.1215096
 ,0.6281584,0.6776129,0.1664907,-0.4568933\PG=C01 [X(H3N1)]\NImag=0\\0.
 60083607,0.13541136,0.27779159,0.03327081,-0.09160594,0.62765368,-0.43
 211709,-0.00967408,-0.00241284,0.45658064,0.04306860,-0.01373224,0.011
 07237,-0.00193081,0.02099734,0.01051733,0.01107072,-0.05608553,-0.0004
 3233,-0.00892291,0.05507947,-0.08427462,-0.08171738,0.06128754,-0.0122
 4339,-0.02899418,0.02928025,0.09249172,-0.11182911,-0.20808975,0.20820
 446,0.00676411,-0.00339118,-0.00287313,0.10009238,0.20804291,0.0700537
 9,0.16387094,-0.20964417,-0.00249224,-0.00016753,0.00026524,-0.0809796
 1,-0.19136719,0.23219334,-0.08444437,-0.04401990,-0.09214551,-0.012220
 17,-0.01214361,-0.03936524,0.00402628,0.00497262,0.01341806,0.09263825
 ,-0.06665085,-0.05596961,-0.12767089,0.00484077,-0.00387393,0.00072531
 ,0.01061918,0.00343801,0.02766378,0.05119089,0.05640552,-0.11384193,-0
 .08333572,-0.36192398,0.00533742,-0.00198193,0.00074082,-0.00958818,-0
 .01396414,-0.02281441,0.11809269,0.09928179,0.38399756\\-0.00000150,-0
 .00002222,-0.00000360,-0.00015810,-0.00005260,-0.00000197,0.00008936,0
 .00007417,-0.00013388,0.00007024,0.00000066,0.00013945\\0.20059582,0.1
 8619219,-0.24086438,0.04642566,-0.12356858,0.23967550,-0.09834102,-0.1
 1638873,-0.02923677,0.07352740,-0.14087780,0.04295606,0.01328338,0.115
 60071,-0.03477309,-0.03528675,0.01325138,-0.01141670,0.02905783,-0.007
 78021,-0.00149663,-0.05082588,-0.05432697,0.07033640,0.01239030,0.0142
 4408,-0.00344928,0.03648290,-0.04032939,0.11095627,0.02249225,0.001612
 35,-0.00296783,-0.00137706,0.03591050,-0.10370353,0.06632872,0.0431121
 4,-0.12670469,-0.00511065,-0.00865305,0.00525871,-0.06487578,-0.022248
 93,0.10425993,-0.05142892,-0.01547649,-0.08752528,0.01242332,0.0110330
 1,0.00967819,0.00195268,0.00280654,0.00365771,0.03705292,-0.00498499,0
 .08695204,0.08779294,-0.00082433,-0.00521514,-0.00409412,0.00417238,-0
 .00428491,-0.01221016,0.00163694,-0.07745200,-0.07746763,0.06720505,-0
 .10155411,0.00528959,0.00314987,0.00765463,-0.00201134,0.00113374,0.01
 718605,0.07418937,-0.07148866,0.07671344,-0.11143267,-0.12843252,-0.03
 955146,0.21275483,-0.01879471,0.15258699,0.03543098,0.05411656,-0.1057
 8518,-0.01989294,0.05325127,-0.00391516,-0.01220612,-0.04325199,0.0079
 6099,-0.10946548,-0.01625943,-0.01145982,0.08839045,-0.01026988,0.0066
 4832,0.08493119,0.07418277,-0.06738209,-0.03133799,-0.01327413,0.01355
 284,-0.04794769,0.07619224,0.00864846,0.01000952,-0.01450931,0.0053154
 3,0.02144217,-0.06914655,-0.01234609,-0.06219219,0.01144311,-0.0765752
 0,0.01062706,0.01946398,-0.00127621,0.05216143,-0.02407932,0.05571605,
 -0.00892950,0.00013318,-0.03958756,0.01579995,0.00327485,0.00752219,-0
 .00564551,0.00746362,-0.00059630,-0.00122494,-0.00101100,0.03481817,0.
 02099131,0.00364474,-0.00936126,0.00508714,0.00823790,-0.00161779,-0.0
 0682776,-0.01087165,-0.02383912,-0.04109715,0.02361103,-0.06455197,0.0
 0676766,0.00301203,0.00608771,0.00166781,-0.00737237,0.02213536,0.0326
 6167,-0.01925069,0.03632890,-0.17280134,-0.07542843,-0.03530183,-0.176
 90580,-0.08281896,0.20819061,0.05530550,0.02476696,0.08327596,-0.03122
 864,0.02169361,-0.01898305,0.00531993,-0.01818591,0.00118477,0.0847183
 4,0.00794395,-0.00291598,-0.06870492,0.00164993,0.01968099,0.02892103,
 0.01355690,0.00815893,0.00316800,0.00102087,0.00046265,-0.02331560,0.0
 1265289,0.03911856,0.03662235,0.00044939,-0.00060789,-0.00090608,-0.02
 525160,-0.03520491,0.01138068,0.03444779,-0.10300293,0.00001511,0.0004
 2697,-0.00120616,-0.01369344,-0.02585887,0.06909645,0.08857482,0.03710
 456,0.08547091,-0.02724485,-0.00452858,-0.01647608,-0.00877343,0.01214
 932,0.00229765,-0.05255654,0.04108192,0.01516633,0.04087668,-0.0070304
 4,0.01840617,-0.00868780,0.01067382,-0.00330575,-0.00901589,-0.0447253
 1,-0.03026674,0.08080677,0.04042722,-0.10227170,-0.01458615,-0.0073968
 3,-0.01555886,0.00507186,-0.00985740,0.03511263,-0.07129248,-0.0231730
 0,0.08271792,-0.87526751,-0.27683722,-0.21275199,-0.06988095,0.1867646
 0,-0.93367767,0.86592193,-0.02611394,-0.00658404,-0.88670697,-0.049848
 99,-0.10936344,-0.00687667,0.02214223,0.11746887,-0.01239815,-0.006881
 25,-0.08547901,0.00556443,0.00774652,0.09037573,0.00438457,0.20636518,
 -0.18849196,0.01037984,0.02099467,-0.02571547,-0.00684235,0.21992463,0
 .34259848,-0.44887668,0.00160179,-0.00323484,-0.00386859,-0.22092016,-
 0.33099621,-0.19244722,-0.42893599,0.32469244,0.00194239,-0.00024620,-
 0.00327830,0.20324892,0.44840899,-0.34161170,0.00496101,0.09658598,0.2
 6495695,0.01040520,0.00671209,0.03254918,-0.00792206,-0.00060626,-0.01
 274409,-0.00744414,0.10676158,-0.02048304,0.26898876,0.00236991,-0.004
 87058,0.00300332,-0.00643969,-0.00836742,-0.01922681,-0.10269180,0.033
 72105,0.27472632,0.24905264,0.69446424,-0.00092278,-0.00062364,-0.0016
 1842,0.01095851,0.00433628,0.02019756,-0.28476205,-0.25276527,-0.71304
 338,-0.93735705,0.08345010,-0.07200093,0.52255065,0.59196844,1.0160224
 2,0.89830685,-0.03298223,-0.03968351,-0.88776706,-0.05258590,-0.125346
 31,-0.00435006,0.03550100,0.12251806,-0.01647120,-0.00979534,-0.118602
 96,0.03392134,0.00692557,0.10649847,0.00787186,0.09023667,-0.08291581,
 0.00416043,0.01774718,-0.01549508,-0.01465982,0.11545266,0.15195789,-0
 .18393848,-0.00436982,0.00142391,-0.00137076,-0.10948628,-0.15145532,-
 0.10568588,-0.19858155,0.11420330,0.00034576,-0.00437954,0.00055732,0.
 09582344,0.18399066,-0.10975900,0.03117833,-0.14070454,-0.39995134,-0.
 01470023,-0.00066228,-0.00195505,0.00262753,-0.00159657,0.00951667,-0.
 01910563,-0.14631686,0.04538935,-0.40367989,0.00185105,0.00140433,0.00
 424053,0.00150243,-0.00192647,0.01897043,0.14296339,-0.04486721,-0.400
 39357,-0.38359155,-1.01162276,0.00541640,0.00180403,0.01154717,0.00258
 744,0.00131858,-0.00500161,0.39238972,0.38046894,1.00507720,-0.9924587
 7,0.31998097,0.64072467,-0.39407044,-0.75016306,0.35313794,0.94982441,
 -0.04933605,0.01738678,-0.93861955,-0.05698176,-0.13603240,-0.00282154
 ,0.04902437,0.13092795,-0.01093960,0.00237782,-0.12166081,-0.01142650,
 0.00408788,0.11093701,0.03263223,-0.30408124,0.28427221,-0.01448983,-0
 .00057052,0.00057426,-0.02093102,-0.30785537,-0.49479178,0.65936422,0.
 00386781,0.00606870,-0.00720959,0.30152061,0.48309239,0.28080519,0.638
 26884,-0.45289773,-0.00399323,-0.00489563,0.00696617,-0.27581695,-0.63
 879302,0.45898575,0.01000213,0.03343631,0.09241145,0.00328498,0.008527
 92,0.02179184,0.00278862,0.00246696,-0.00099501,-0.01607573,0.04485616
 ,-0.00990049,0.09362038,-0.00355613,-0.00096425,0.00074389,0.00313116,
 0.00563068,0.00541980,-0.04443119,0.00523406,0.12420485,0.10951639,0.2
 2142061,-0.00196705,0.00362929,0.00375763,-0.00902952,-0.01336162,-0.0
 1305419,-0.11320828,-0.09978407,-0.21212405,-0.33966694,-0.03554941,-0
 .19653922,-0.02332456,0.06135980,-0.33622840,0.37597433,-0.09458574,-0
 .01662100,-0.36036449,-0.15842713,-0.08141523,-0.01471724,0.11338563,0
 .08739848,-0.03149699,-0.01415539,-0.02147932,0.02077276,0.01564548,0.
 02436779,-0.02472316,0.07574180,-0.00837444,-0.00770797,0.02533495,-0.
 00600034,0.02510804,0.11205462,0.23550634,-0.24823774,-0.01117053,-0.0
 0900341,0.01539644,-0.09318135,-0.21230830,-0.02004950,-0.19496847,0.0
 7386505,0.00534177,0.00237089,0.00362787,0.01684095,0.21482302,-0.0728
 5088,-0.01158422,0.05439335,0.04832000,-0.00790186,0.01970655,0.016724
 57,0.00732310,-0.00770274,-0.00213321,0.01216298,0.08192192,0.04244812
 ,0.20159519,-0.00762936,0.00302016,-0.01688653,-0.00789540,-0.01419463
 ,-0.02222544,-0.06639716,-0.03127365,0.07487105,0.14776407,0.28384267,
 -0.00949353,-0.00329912,-0.00651634,-0.00246617,0.01801828,-0.00464204
 ,-0.06291135,-0.16248322,-0.27268429,-0.47768878,-0.05105248,-0.236249
 76,0.06424323,0.21907903,-0.23815953,0.45455353,-0.02179228,0.02001737
 ,-0.43463477,-0.07724730,-0.01653801,0.00329507,0.05576455,0.01984504,
 0.06290579,0.00783073,-0.03524601,-0.04460268,-0.01333914,0.04698168,-
 0.00680554,0.05440364,-0.07789930,-0.01352157,0.02969177,-0.03508676,0
 .02629851,0.10067001,0.22731066,-0.25755697,-0.02354883,-0.00246225,0.
 00986077,-0.07109371,-0.22412482,-0.12432635,-0.24177177,0.22547045,0.
 02543781,0.01281520,-0.01191574,0.09531407,0.24191774,-0.21070139,0.02
 994080,0.01844112,-0.00636130,-0.00639718,-0.00820901,0.01678365,-0.00
 597139,-0.00602747,0.00357447,-0.01757222,0.02762977,0.02547711,0.0351
 8288,-0.01042344,-0.00084478,-0.00435236,-0.01300171,-0.00072360,-0.01
 296116,-0.00420463,-0.02390874,-0.00282267,0.01486201,0.04793508,-0.00
 085250,-0.00277113,0.00018006,0.01767199,0.00577847,-0.00285333,-0.013
 99682,-0.01786936,-0.04526182,-0.28729399,-0.08133576,-0.14745145,-0.0
 9589024,-0.08386866,-0.53485019,0.23123496,-0.00919073,-0.01128791,-0.
 22317957,-0.02603112,-0.00392108,-0.00558902,0.00975848,-0.00465980,-0
 .07029613,-0.00980724,0.00275737,0.04330606,0.00500095,0.02224870,0.04
 200999,0.05997146,-0.04973297,0.00008273,0.00034073,-0.00544558,-0.034
 78330,0.05550414,0.10334343,-0.10137887,-0.00021511,0.00095965,0.00003
 931,-0.04985403,-0.09604249,-0.01695601,-0.05764402,0.04502287,-0.0033
 8213,0.00043243,-0.00275279,0.05285765,0.07564250,-0.03709584,0.014049
 04,0.03055503,0.15691112,-0.00813811,0.01593191,0.03243565,-0.00730942
 ,-0.00543500,-0.03251951,0.00139850,0.05186274,0.04802909,0.19083655,-
 0.00035264,0.00762123,0.00476698,-0.01045816,-0.00826059,-0.01843091,-
 0.04105194,-0.04738973,0.18314238,0.15131992,0.48706995,-0.02863602,0.
 00015564,-0.02225328,0.00232091,0.02569706,-0.00517424,-0.15682727,-0.
 17717262,-0.45964243,1.35067756,0.53367131,0.09833271,0.16966747,-0.33
 390303,1.50618573,-1.52343497,0.03141638,0.02573918,1.51523383,0.07290
 106,0.30102479,0.01283876,-0.04061894,-0.32771089,0.03561663,0.0131489
 6,0.29838749,-0.02751147,-0.01440063,-0.32004343,0.10376995,-0.3824465
 4,0.37562961,0.00428166,-0.02270980,0.02276039,-0.12117976,-0.40655544
 ,-0.53690631,0.84515532,0.00751846,0.01322487,0.00076065,0.39999564,0.
 50652057,0.38242454,0.81020130,-0.49412910,-0.00964194,0.00057638,0.01
 084278,-0.38595278,-0.83331296,0.48548534,0.06898746,-0.18264115,-0.57
 103627,0.00391947,-0.00957232,-0.03086555,0.01312815,-0.00095867,0.013
 17017,-0.08603509,-0.20001693,0.13754881,-0.52409105,0.00168409,0.0134
 6124,0.00049102,0.00516070,0.01716087,0.02253528,0.19317213,-0.1681709
 1,-0.58770865,-0.48944724,-1.31044412,0.01141423,0.00098549,0.01081317
 ,-0.01243723,-0.01260301,-0.00219902,0.58873165,0.50106476,1.30182997,
 1.30521726,0.40388228,-0.56182649,1.00085585,0.96959093,2.39311163,-1.
 55038129,0.05620817,0.09374720,1.54706480,0.07707496,0.33621550,0.0015
 9090,-0.06243081,-0.33786040,0.09432652,0.00211121,0.33768771,-0.10363
 577,-0.01174076,-0.34869093,-0.00364145,-0.07756026,0.07012994,0.00701
 878,-0.01289314,0.00812316,-0.00471541,-0.09129349,-0.10330848,0.13128
 422,0.00259739,0.00323286,0.00269365,0.09050192,0.10180060,0.07515622,
 0.11497439,-0.06526576,0.00159465,0.00670382,0.00427504,-0.08356845,-0
 .13899764,0.05381934,0.24880548,-0.38253019,-1.16473299,-0.00370229,-0
 .00175101,0.00118609,0.00133808,-0.00180583,0.00681758,-0.24644126,-0.
 38966376,0.32891947,-1.10246605,0.00362524,-0.00158796,0.00693590,-0.0
 0004852,-0.00172498,0.01731943,0.38608703,-0.32560653,-1.17033859,-1.0
 8667653,-2.66553360,0.00829391,0.00344604,0.00672817,0.00531536,0.0050
 1976,0.00717137,1.15672932,1.07821072,2.65163405,1.44850538,0.70468403
 ,0.72462922,-0.66550607,-1.68134468,0.66471949,-1.74255003,0.09081321,
 -0.01630465,1.73616939,0.11012973,0.36747321,0.02073952,-0.10075310,-0
 .37754746,-0.00772506,0.02095061,0.38814016,0.02319359,-0.01141830,-0.
 38707775,0.30897505,-0.77207090,0.74884346,-0.00179697,-0.00140122,-0.
 00214141,-0.30972195,-0.78221291,-1.08732263,1.72072148,0.00767849,0.0
 0316879,-0.00783206,0.77196873,1.07401368,0.75018150,1.70304457,-0.935
 26915,-0.00611556,-0.00392885,0.00016965,-0.73918295,-1.69592663,0.939
 48008,-0.01493040,-0.02342634,-0.06703274,0.00817760,-0.00797541,-0.01
 332712,0.00254388,0.00256569,-0.00488299,0.00420892,-0.03260085,-0.004
 77979,-0.06011632,0.00226140,0.00690546,-0.00170026,0.00150340,0.01014
 016,-0.00318909,0.02883605,-0.01226582,-0.07695037,-0.04265051,-0.1175
 9050,-0.00077338,-0.00539237,-0.00123206,-0.00751910,-0.01696279,-0.00
 438057,0.08524286,0.06500567,0.12320313\\@
 The archive entry for this job was punched.


 KEEP CLOSE TO NATURES HEART, YOURSELF;
 AND BREAK CLEAR AWAY, ONCE IN A WHILE, AND
 CLIMB A MOUNTAIN OR SPEND A WEEK IN THE
 WOODS.  WASH YOUR SPIRIT CLEAN...
                                         -- JOHN MUIR
 Job cpu time:       0 days  0 hours 10 minutes  4.3 seconds.
 Elapsed time:       0 days  0 hours  2 minutes 33.6 seconds.
 File lengths (MBytes):  RWF=     44 Int=      0 D2E=      0 Chk=     38 Scr=      1
 Normal termination of Gaussian 16 at Tue Jun 23 13:20:57 2020.
