 Entering Gaussian System, Link 0=g16
 Input=ethene.gjf
 Output=ethene.log
 Initial command:
 /apps/gaussian/g16c01/g16/l1.exe "/jobfs/7627943.gadi-pbs/Gau-54385.inp" -scrdir="/jobfs/7627943.gadi-pbs/"
 Entering Link 1 = /apps/gaussian/g16c01/g16/l1.exe PID=     54386.
  
 Copyright (c) 1988-2019, Gaussian, Inc.  All Rights Reserved.
  
 This is part of the Gaussian(R) 16 program.  It is based on
 the Gaussian(R) 09 system (copyright 2009, Gaussian, Inc.),
 the Gaussian(R) 03 system (copyright 2003, Gaussian, Inc.),
 the Gaussian(R) 98 system (copyright 1998, Gaussian, Inc.),
 the Gaussian(R) 94 system (copyright 1995, Gaussian, Inc.),
 the Gaussian 92(TM) system (copyright 1992, Gaussian, Inc.),
 the Gaussian 90(TM) system (copyright 1990, Gaussian, Inc.),
 the Gaussian 88(TM) system (copyright 1988, Gaussian, Inc.),
 the Gaussian 86(TM) system (copyright 1986, Carnegie Mellon
 University), and the Gaussian 82(TM) system (copyright 1983,
 Carnegie Mellon University). Gaussian is a federally registered
 trademark of Gaussian, Inc.
  
 This software contains proprietary and confidential information,
 including trade secrets, belonging to Gaussian, Inc.
  
 This software is provided under written license and may be
 used, copied, transmitted, or stored only in accord with that
 written license.
  
 The following legend is applicable only to US Government
 contracts under FAR:
  
                    RESTRICTED RIGHTS LEGEND
  
 Use, reproduction and disclosure by the US Government is
 subject to restrictions as set forth in subparagraphs (a)
 and (c) of the Commercial Computer Software - Restricted
 Rights clause in FAR 52.227-19.
  
 Gaussian, Inc.
 340 Quinnipiac St., Bldg. 40, Wallingford CT 06492
  
  
 ---------------------------------------------------------------
 Warning -- This program may not be used in any manner that
 competes with the business of Gaussian, Inc. or will provide
 assistance to any competitor of Gaussian, Inc.  The licensee
 of this program is prohibited from giving any competitor of
 Gaussian, Inc. access to this program.  By using this program,
 the user acknowledges that Gaussian, Inc. is engaged in the
 business of creating and licensing software in the field of
 computational chemistry and represents and warrants to the
 licensee that it is not a competitor of Gaussian, Inc. and that
 it will not use this program in any manner prohibited above.
 ---------------------------------------------------------------
  

 Cite this work as:
 Gaussian 16, Revision C.01,
 M. J. Frisch, G. W. Trucks, H. B. Schlegel, G. E. Scuseria, 
 M. A. Robb, J. R. Cheeseman, G. Scalmani, V. Barone, 
 G. A. Petersson, H. Nakatsuji, X. Li, M. Caricato, A. V. Marenich, 
 J. Bloino, B. G. Janesko, R. Gomperts, B. Mennucci, H. P. Hratchian, 
 J. V. Ortiz, A. F. Izmaylov, J. L. Sonnenberg, D. Williams-Young, 
 F. Ding, F. Lipparini, F. Egidi, J. Goings, B. Peng, A. Petrone, 
 T. Henderson, D. Ranasinghe, V. G. Zakrzewski, J. Gao, N. Rega, 
 G. Zheng, W. Liang, M. Hada, M. Ehara, K. Toyota, R. Fukuda, 
 J. Hasegawa, M. Ishida, T. Nakajima, Y. Honda, O. Kitao, H. Nakai, 
 T. Vreven, K. Throssell, J. A. Montgomery, Jr., J. E. Peralta, 
 F. Ogliaro, M. J. Bearpark, J. J. Heyd, E. N. Brothers, K. N. Kudin, 
 V. N. Staroverov, T. A. Keith, R. Kobayashi, J. Normand, 
 K. Raghavachari, A. P. Rendell, J. C. Burant, S. S. Iyengar, 
 J. Tomasi, M. Cossi, J. M. Millam, M. Klene, C. Adamo, R. Cammi, 
 J. W. Ochterski, R. L. Martin, K. Morokuma, O. Farkas, 
 J. B. Foresman, and D. J. Fox, Gaussian, Inc., Wallingford CT, 2019.
 
 ******************************************
 Gaussian 16:  ES64L-G16RevC.01  3-Jul-2019
                23-Jun-2020 
 ******************************************
 %NprocShared=4
 Will use up to    4 processors via shared memory.
 %chk=checkpoint.chk
 -------------------------------------------------------
 # M06/Def2TZVP Freq=(anharmonic,ReadAnharm) Opt=CalcAll
 -------------------------------------------------------
 1/10=4,18=20,19=15,26=3,38=1,80=1/1,3;
 2/9=110,12=2,17=6,18=5,40=1/2;
 3/5=44,7=101,11=2,25=1,30=1,71=2,74=-54,140=1/1,2,3;
 4//1;
 5/5=2,38=5/2;
 8/6=4,10=90,11=11/1;
 11/6=1,8=1,9=11,15=111,16=1/1,2,10;
 10/6=1/2;
 6/7=2,8=2,9=2,10=2,18=1,28=1/1;
 7/10=1,25=1/1,2,3,16;
 1/10=4,18=20,19=15,26=3,80=1/3(3);
 2/9=110/2;
 7/8=1,9=1,25=1,44=-1,71=2,72=1/16;
 99//99;
 2/9=110/2;
 3/5=44,7=101,11=2,25=1,30=1,71=2,74=-54,140=1/1,2,3;
 4/5=5,16=3,69=1/1;
 5/5=2,38=5/2;
 8/6=4,10=90,11=11/1;
 11/6=1,8=1,9=11,15=111,16=1/1,2,10;
 10/6=1/2;
 7/10=1,25=1/1,2,3,16;
 1/10=4,18=20,19=15,26=3,80=1/3(-8);
 2/9=110/2;
 6/7=2,8=2,9=2,10=2,18=1,19=2,28=1/1;
 7/8=1,9=1,25=1,44=-1,71=1,72=1/16;
 99//99;
 --------------------------------------------
 Anharmonic frequencies for ethene using VPT2
 --------------------------------------------
 Symbolic Z-matrix:
 Charge =  0 Multiplicity = 1
 C                    -0.60396   1.82801   0. 
 C                     0.73176   1.84069   0. 
 H                    -1.17088   2.56631   0.5584 
 H                    -1.15677   1.07908  -0.5584 
 H                     1.28457   2.58962   0.5584 
 H                     1.29868   1.10239  -0.5584 
 

 GradGradGradGradGradGradGradGradGradGradGradGradGradGradGradGradGradGrad
 Berny optimization.
 Initialization pass.
                           ----------------------------
                           !    Initial Parameters    !
                           ! (Angstroms and Degrees)  !
 --------------------------                            --------------------------
 ! Name  Definition              Value          Derivative Info.                !
 --------------------------------------------------------------------------------
 ! R1    R(1,2)                  1.3358         calculate D2E/DX2 analytically  !
 ! R2    R(1,3)                  1.0855         calculate D2E/DX2 analytically  !
 ! R3    R(1,4)                  1.0855         calculate D2E/DX2 analytically  !
 ! R4    R(2,5)                  1.0855         calculate D2E/DX2 analytically  !
 ! R5    R(2,6)                  1.0855         calculate D2E/DX2 analytically  !
 ! A1    A(2,1,3)              121.0502         calculate D2E/DX2 analytically  !
 ! A2    A(2,1,4)              121.0506         calculate D2E/DX2 analytically  !
 ! A3    A(3,1,4)              117.8991         calculate D2E/DX2 analytically  !
 ! A4    A(1,2,5)              121.0506         calculate D2E/DX2 analytically  !
 ! A5    A(1,2,6)              121.0502         calculate D2E/DX2 analytically  !
 ! A6    A(5,2,6)              117.8991         calculate D2E/DX2 analytically  !
 ! D1    D(3,1,2,5)              0.0            calculate D2E/DX2 analytically  !
 ! D2    D(3,1,2,6)            180.0            calculate D2E/DX2 analytically  !
 ! D3    D(4,1,2,5)            180.0            calculate D2E/DX2 analytically  !
 ! D4    D(4,1,2,6)              0.0            calculate D2E/DX2 analytically  !
 --------------------------------------------------------------------------------
 Trust Radius=3.00D-01 FncErr=1.00D-07 GrdErr=1.00D-06 EigMax=2.50D+02 EigMin=1.00D-04
 Number of steps in this run=     25 maximum allowed number of steps=    100.
 GradGradGradGradGradGradGradGradGradGradGradGradGradGradGradGradGradGrad

                          Input orientation:                          
 ---------------------------------------------------------------------
 Center     Atomic      Atomic             Coordinates (Angstroms)
 Number     Number       Type             X           Y           Z
 ---------------------------------------------------------------------
      1          6           0       -0.603960    1.828010    0.000000
      2          6           0        0.731760    1.840690    0.000000
      3          1           0       -1.170880    2.566310    0.558400
      4          1           0       -1.156770    1.079080   -0.558400
      5          1           0        1.284570    2.589620    0.558400
      6          1           0        1.298680    1.102390   -0.558400
 ---------------------------------------------------------------------
                    Distance matrix (angstroms):
                    1          2          3          4          5
     1  C    0.000000
     2  C    1.335780   0.000000
     3  H    1.085493   2.111486   0.000000
     4  H    1.085498   2.111494   1.859918   0.000000
     5  H    2.111494   1.085498   2.455561   3.080441   0.000000
     6  H    2.111486   1.085493   3.080427   2.455561   1.859918
                    6
     6  H    0.000000
 Stoichiometry    C2H4
 Framework group  C2H[SGH(C2H4)]
 Deg. of freedom     5
 Full point group                 C2H     NOp   4
 Largest Abelian subgroup         C2H     NOp   4
 Largest concise Abelian subgroup C2      NOp   2
                         Standard orientation:                         
 ---------------------------------------------------------------------
 Center     Atomic      Atomic             Coordinates (Angstroms)
 Number     Number       Type             X           Y           Z
 ---------------------------------------------------------------------
      1          6           0       -0.000000    0.667890    0.000000
      2          6           0       -0.000000   -0.667890    0.000000
      3          1           0       -0.929959    1.227776    0.000000
      4          1           0        0.929959    1.227784    0.000000
      5          1           0       -0.929959   -1.227784   -0.000000
      6          1           0        0.929959   -1.227776    0.000000
 ---------------------------------------------------------------------
 Rotational constants (GHZ):         144.9587823          30.1128895          24.9333759
 Standard basis: def2TZVP (5D, 7F)
 There are    35 symmetry adapted cartesian basis functions of AG  symmetry.
 There are    13 symmetry adapted cartesian basis functions of BG  symmetry.
 There are    13 symmetry adapted cartesian basis functions of AU  symmetry.
 There are    35 symmetry adapted cartesian basis functions of BU  symmetry.
 There are    31 symmetry adapted basis functions of AG  symmetry.
 There are    12 symmetry adapted basis functions of BG  symmetry.
 There are    12 symmetry adapted basis functions of AU  symmetry.
 There are    31 symmetry adapted basis functions of BU  symmetry.
    86 basis functions,   134 primitive gaussians,    96 cartesian basis functions
     8 alpha electrons        8 beta electrons
       nuclear repulsion energy        33.3200100747 Hartrees.
 NAtoms=    6 NActive=    6 NUniq=    3 SFac= 4.00D+00 NAtFMM=   60 NAOKFM=F Big=F
 Integral buffers will be    131072 words long.
 Raffenetti 2 integral format.
 Two-electron integral symmetry is turned on.
 One-electron integrals computed using PRISM.
   4 Symmetry operations used in ECPInt.
 ECPInt:  NShTT=     741 NPrTT=    2136 LenC2=     742 LenP2D=    1976.
 LDataN:  DoStor=T MaxTD1= 6 Len=  172
 NBasis=    86 RedAO= T EigKep=  2.33D-04  NBF=    31    12    12    31
 NBsUse=    86 1.00D-06 EigRej= -1.00D+00 NBFU=    31    12    12    31
 ExpMin= 9.52D-02 ExpMax= 1.36D+04 ExpMxC= 4.63D+02 IAcc=3 IRadAn=         5 AccDes= 0.00D+00
 Harris functional with IExCor= 1009 and IRadAn=       5 diagonalized for initial guess.
 HarFok:  IExCor= 1009 AccDes= 0.00D+00 IRadAn=         5 IDoV= 1 UseB2=F ITyADJ=14
 ICtDFT=  3500011 ScaDFX=  1.000000  1.000000  1.000000  1.000000
 FoFCou: FMM=F IPFlag=           0 FMFlag=      100000 FMFlg1=           0
         NFxFlg=           0 DoJE=T BraDBF=F KetDBF=T FulRan=T
         wScrn=  0.000000 ICntrl=       500 IOpCl=  0 I1Cent=   200000004 NGrid=           0
         NMat0=    1 NMatS0=      1 NMatT0=    0 NMatD0=    1 NMtDS0=    0 NMtDT0=    0
 Petite list used in FoFCou.
 Initial guess orbital symmetries:
       Occupied  (AG) (BU) (AG) (BU) (BU) (AG) (AG) (AU)
       Virtual   (BG) (AG) (BU) (BU) (AG) (AG) (BU) (AG) (AU) (BU)
                 (BG) (BU) (BU) (AG) (BU) (AG) (BG) (BU) (AG) (AU)
                 (AU) (AG) (AG) (BU) (BU) (AG) (BG) (BU) (AG) (AU)
                 (BU) (BU) (BG) (AG) (BU) (BG) (BU) (AG) (AU) (BG)
                 (AG) (AU) (AG) (BU) (AG) (BU) (BU) (AU) (AG) (AG)
                 (BU) (BG) (AG) (BU) (AU) (AU) (AG) (BG) (BU) (BG)
                 (AG) (AG) (BU) (BG) (AU) (BU) (BU) (AU) (AG) (AG)
                 (BU) (BG) (AG) (BU) (AG) (BU) (AG) (BU)
 The electronic state of the initial guess is 1-AG.
 Keep R1 ints in memory in symmetry-blocked form, NReq=10702699.
 Requested convergence on RMS density matrix=1.00D-08 within 128 cycles.
 Requested convergence on MAX density matrix=1.00D-06.
 Requested convergence on             energy=1.00D-06.
 No special actions if energy rises.
 Integral accuracy reduced to 1.0D-05 until final iterations.
 Initial convergence to 1.0D-05 achieved.  Increase integral accuracy.
 SCF Done:  E(RM06) =  -78.5466678543     A.U. after   11 cycles
            NFock= 11  Conv=0.41D-08     -V/T= 2.0059
 DoSCS=F DFT=T ScalE2(SS,OS)=  1.000000  1.000000
 Range of M.O.s used for correlation:     1    86
 NBasis=    86 NAE=     8 NBE=     8 NFC=     0 NFV=     0
 NROrb=     86 NOA=     8 NOB=     8 NVA=    78 NVB=    78

 **** Warning!!: The largest alpha MO coefficient is  0.18914892D+02

   4 Symmetry operations used in ECPInt.
 ECPInt:  NShTT=     741 NPrTT=    2136 LenC2=     742 LenP2D=    1976.
 LDataN:  DoStor=T MaxTD1= 7 Len=  274
 Symmetrizing basis deriv contribution to polar:
 IMax=3 JMax=2 DiffMx= 0.00D+00
 G2DrvN: will do     7 centers at a time, making    1 passes.
 Calling FoFCou, ICntrl=  3107 FMM=F I1Cent=   0 AccDes= 0.00D+00.
 End of G2Drv F.D. properties file   721 does not exist.
 End of G2Drv F.D. properties file   722 does not exist.
 End of G2Drv F.D. properties file   788 does not exist.
          IDoAtm=111111
          Differentiating once with respect to electric field.
                with respect to dipole field.
          Differentiating once with respect to nuclear coordinates.
 Keep R1 ints in memory in symmetry-blocked form, NReq=10694392.
          There are    12 degrees of freedom in the 1st order CPHF.  IDoFFX=4 NUNeed=    12.
     12 vectors produced by pass  0 Test12= 5.20D-15 8.33D-09 XBig12= 3.30D+01 4.84D+00.
 AX will form    12 AO Fock derivatives at one time.
     12 vectors produced by pass  1 Test12= 5.20D-15 8.33D-09 XBig12= 7.21D+00 9.73D-01.
     12 vectors produced by pass  2 Test12= 5.20D-15 8.33D-09 XBig12= 4.25D-01 1.93D-01.
     12 vectors produced by pass  3 Test12= 5.20D-15 8.33D-09 XBig12= 5.99D-03 2.56D-02.
     12 vectors produced by pass  4 Test12= 5.20D-15 8.33D-09 XBig12= 7.32D-05 2.60D-03.
     12 vectors produced by pass  5 Test12= 5.20D-15 8.33D-09 XBig12= 5.76D-07 2.20D-04.
      6 vectors produced by pass  6 Test12= 5.20D-15 8.33D-09 XBig12= 2.98D-09 1.55D-05.
      3 vectors produced by pass  7 Test12= 5.20D-15 8.33D-09 XBig12= 2.13D-11 1.83D-06.
      1 vectors produced by pass  8 Test12= 5.20D-15 8.33D-09 XBig12= 6.63D-14 6.14D-08.
 InvSVY:  IOpt=1 It=  1 EMax= 3.55D-15
 Solved reduced A of dimension    82 with    12 vectors.
 Isotropic polarizability for W=    0.000000       25.26 Bohr**3.
 End of Minotr F.D. properties file   721 does not exist.
 End of Minotr F.D. properties file   722 does not exist.
 End of Minotr F.D. properties file   788 does not exist.

 **********************************************************************

            Population analysis using the SCF Density.

 **********************************************************************

 Orbital symmetries:
       Occupied  (AG) (BU) (AG) (BU) (BU) (AG) (AG) (AU)
       Virtual   (BG) (AG) (BU) (BU) (AG) (AG) (BU) (AG) (AU) (BU)
                 (BG) (BU) (BU) (BU) (AG) (AG) (BG) (BU) (AG) (AU)
                 (AU) (AG) (AG) (BU) (BU) (AG) (BG) (BU) (AG) (AU)
                 (BU) (BU) (AG) (BG) (BU) (BU) (BG) (AG) (AU) (BG)
                 (AG) (AU) (AG) (BU) (AG) (BU) (BU) (AU) (BU) (AG)
                 (AG) (BG) (AG) (BU) (AU) (AG) (AU) (BG) (BU) (AG)
                 (BG) (AG) (BU) (BG) (AU) (BU) (BU) (AU) (AG) (AG)
                 (BU) (AG) (BG) (AG) (BU) (BU) (AG) (BU)
 The electronic state is 1-AG.
 Alpha  occ. eigenvalues --  -10.23824 -10.23736  -0.77085  -0.58915  -0.48303
 Alpha  occ. eigenvalues --   -0.42929  -0.36807  -0.28848
 Alpha virt. eigenvalues --    0.00190   0.06383   0.08076   0.08588   0.12740
 Alpha virt. eigenvalues --    0.19530   0.21074   0.21407   0.22835   0.27384
 Alpha virt. eigenvalues --    0.31168   0.33725   0.38195   0.41476   0.42674
 Alpha virt. eigenvalues --    0.45298   0.54271   0.54408   0.60363   0.71911
 Alpha virt. eigenvalues --    0.76713   0.78451   0.88941   0.92264   1.03144
 Alpha virt. eigenvalues --    1.05457   1.08768   1.20740   1.31180   1.42020
 Alpha virt. eigenvalues --    1.49437   1.49687   1.54447   1.58323   1.67901
 Alpha virt. eigenvalues --    1.68651   1.70355   1.74115   1.77257   1.79857
 Alpha virt. eigenvalues --    1.96244   2.16335   2.21721   2.23251   2.30383
 Alpha virt. eigenvalues --    2.37838   2.40983   2.51334   2.56259   2.56301
 Alpha virt. eigenvalues --    2.57107   2.71781   2.79585   2.89121   2.92662
 Alpha virt. eigenvalues --    2.93224   2.99422   3.04269   3.08626   3.11412
 Alpha virt. eigenvalues --    3.11867   3.23321   3.33176   3.34273   3.37440
 Alpha virt. eigenvalues --    3.39256   3.58361   3.64259   3.93876   3.94004
 Alpha virt. eigenvalues --    4.03412   4.26368   4.28925   4.48582   4.52549
 Alpha virt. eigenvalues --    4.70173  21.90227  22.50578
          Condensed to atoms (all electrons):
               1          2          3          4          5          6
     1  C    4.957889   0.498113   0.416316   0.416316  -0.047180  -0.047181
     2  C    0.498113   4.957889  -0.047181  -0.047180   0.416316   0.416316
     3  H    0.416316  -0.047181   0.559974  -0.025526  -0.005531   0.004812
     4  H    0.416316  -0.047180  -0.025526   0.559973   0.004811  -0.005531
     5  H   -0.047180   0.416316  -0.005531   0.004811   0.559973  -0.025526
     6  H   -0.047181   0.416316   0.004812  -0.005531  -0.025526   0.559974
 Mulliken charges:
               1
     1  C   -0.194274
     2  C   -0.194274
     3  H    0.097136
     4  H    0.097137
     5  H    0.097137
     6  H    0.097136
 Sum of Mulliken charges =  -0.00000
 Mulliken charges with hydrogens summed into heavy atoms:
               1
     1  C   -0.000000
     2  C   -0.000000
 APT charges:
               1
     1  C   -0.072765
     2  C   -0.072765
     3  H    0.036382
     4  H    0.036383
     5  H    0.036383
     6  H    0.036382
 Sum of APT charges =  -0.00000
 APT charges with hydrogens summed into heavy atoms:
               1
     1  C    0.000000
     2  C   -0.000000
 Electronic spatial extent (au):  <R**2>=             82.9313
 Charge=             -0.0000 electrons
 Dipole moment (field-independent basis, Debye):
    X=              0.0000    Y=              0.0000    Z=             -0.0000  Tot=              0.0000
 Quadrupole moment (field-independent basis, Debye-Ang):
   XX=            -12.3234   YY=            -12.3738   ZZ=            -15.5591
   XY=              0.0000   XZ=             -0.0000   YZ=             -0.0000
 Traceless Quadrupole moment (field-independent basis, Debye-Ang):
   XX=              1.0954   YY=              1.0450   ZZ=             -2.1403
   XY=              0.0000   XZ=             -0.0000   YZ=             -0.0000
 Octapole moment (field-independent basis, Debye-Ang**2):
  XXX=              0.0000  YYY=              0.0000  ZZZ=             -0.0000  XYY=              0.0000
  XXY=             -0.0000  XXZ=             -0.0000  XZZ=              0.0000  YZZ=              0.0000
  YYZ=             -0.0000  XYZ=              0.0000
 Hexadecapole moment (field-independent basis, Debye-Ang**3):
 XXXX=            -27.2729 YYYY=            -69.1326 ZZZZ=            -19.0326 XXXY=             -0.0000
 XXXZ=              0.0000 YYYX=              0.0000 YYYZ=             -0.0000 ZZZX=              0.0000
 ZZZY=              0.0000 XXYY=            -13.4163 XXZZ=             -8.4111 YYZZ=            -15.4640
 XXYZ=              0.0000 YYXZ=             -0.0000 ZZXY=             -0.0000
 N-N= 3.332001007471D+01 E-N=-2.483414081708D+02  KE= 7.808342501824D+01
 Symmetry AG   KE= 3.965472950533D+01
 Symmetry BG   KE= 9.652267797878D-20
 Symmetry AU   KE= 2.092739041341D+00
 Symmetry BU   KE= 3.633595647157D+01
  Exact polarizability:      23.052       0.000      35.220       0.000       0.000      17.523
 Approx polarizability:      29.347       0.000      49.921      -0.000      -0.000      22.413
   4 Symmetry operations used in ECPInt.
 ECPInt:  NShTT=     741 NPrTT=    2136 LenC2=     742 LenP2D=    1976.
 LDataN:  DoStor=T MaxTD1= 8 Len=  415
 Calling FoFJK, ICntrl=    100127 FMM=F ISym2X=1 I1Cent= 0 IOpClX= 0 NMat=1 NMatS=1 NMatT=0.
 ***** Axes restored to original set *****
 -------------------------------------------------------------------
 Center     Atomic                   Forces (Hartrees/Bohr)
 Number     Number              X              Y              Z
 -------------------------------------------------------------------
      1        6           0.019635175    0.000185139   -0.000000946
      2        6          -0.019635175   -0.000185139    0.000000946
      3        1          -0.000778664   -0.001574062   -0.001176348
      4        1          -0.000806311    0.001560971    0.001177816
      5        1           0.000806311   -0.001560971   -0.001177816
      6        1           0.000778664    0.001574062    0.001176348
 -------------------------------------------------------------------
 Cartesian Forces:  Max     0.019635175 RMS     0.006620811
 FormGI is forming the generalized inverse of G from B-inverse, IUseBI=4.

 GradGradGradGradGradGradGradGradGradGradGradGradGradGradGradGradGradGrad
 Berny optimization.
 Internal  Forces:  Max     0.018051020 RMS     0.004818871
 Search for a local minimum.
 Step number   1 out of a maximum of   25
 All quantities printed in internal units (Hartrees-Bohrs-Radians)
 Mixed Optimization -- RFO/linear search
 Second derivative matrix not updated -- analytic derivatives used.
 The second derivative matrix:
                          R1        R2        R3        R4        R5
           R1           0.59540
           R2           0.00626   0.35386
           R3           0.00626   0.00058   0.35385
           R4           0.00626   0.00056  -0.00049   0.35385
           R5           0.00626  -0.00049   0.00056   0.00058   0.35386
           A1           0.01075   0.00495  -0.01105  -0.00321   0.00417
           A2           0.01075  -0.01105   0.00495   0.00417  -0.00321
           A3          -0.02150   0.00609   0.00609  -0.00097  -0.00097
           A4           0.01075  -0.00321   0.00417   0.00495  -0.01105
           A5           0.01075   0.00417  -0.00321  -0.01105   0.00495
           A6          -0.02150  -0.00097  -0.00097   0.00609   0.00609
           D1          -0.00000  -0.00000  -0.00000   0.00000   0.00000
           D2          -0.00000  -0.00000  -0.00000  -0.00000  -0.00000
           D3           0.00000  -0.00000  -0.00000  -0.00000  -0.00000
           D4          -0.00000   0.00000   0.00000  -0.00000  -0.00000
                          A1        A2        A3        A4        A5
           A1           0.07745
           A2          -0.04354   0.07745
           A3          -0.03391  -0.03391   0.06782
           A4          -0.00901   0.01033  -0.00133   0.07745
           A5           0.01033  -0.00901  -0.00133  -0.04354   0.07745
           A6          -0.00133  -0.00133   0.00265  -0.03391  -0.03391
           D1           0.00000  -0.00000  -0.00000   0.00000  -0.00000
           D2          -0.00000   0.00000   0.00000   0.00000  -0.00000
           D3           0.00000   0.00000  -0.00000   0.00000   0.00000
           D4          -0.00000   0.00000  -0.00000  -0.00000   0.00000
                          A6        D1        D2        D3        D4
           A6           0.06782
           D1          -0.00000   0.02534
           D2           0.00000   0.00800   0.03131
           D3          -0.00000   0.00800  -0.01532   0.03131
           D4          -0.00000  -0.00935   0.00800   0.00800   0.02534
 ITU=  0
     Eigenvalues ---    0.03198   0.03469   0.04662   0.09717   0.10136
     Eigenvalues ---    0.10251   0.13778   0.35431   0.35462   0.35477
     Eigenvalues ---    0.35495   0.59879
 RFO step:  Lambda=-8.07216779D-04 EMin= 3.19816102D-02
 Linear search not attempted -- first point.
 Iteration  1 RMS(Cart)=  0.01122839 RMS(Int)=  0.00010606
 Iteration  2 RMS(Cart)=  0.00010756 RMS(Int)=  0.00000001
 Iteration  3 RMS(Cart)=  0.00000001 RMS(Int)=  0.00000000
 ClnCor:  largest displacement from symmetrization is 2.01D-08 for atom     3.
 Variable       Old X    -DE/DX   Delta X   Delta X   Delta X     New X
                                 (Linear)    (Quad)   (Total)
    R1        2.52426  -0.01805   0.00000  -0.03323  -0.03323   2.49103
    R2        2.05129  -0.00127   0.00000  -0.00238  -0.00238   2.04891
    R3        2.05129  -0.00127   0.00000  -0.00239  -0.00239   2.04891
    R4        2.05129  -0.00127   0.00000  -0.00239  -0.00239   2.04891
    R5        2.05129  -0.00127   0.00000  -0.00238  -0.00238   2.04891
    A1        2.11273   0.00116   0.00000   0.01409   0.01409   2.12682
    A2        2.11273   0.00116   0.00000   0.01409   0.01409   2.12682
    A3        2.05773  -0.00231   0.00000  -0.02818  -0.02818   2.02955
    A4        2.11273   0.00116   0.00000   0.01409   0.01409   2.12682
    A5        2.11273   0.00116   0.00000   0.01409   0.01409   2.12682
    A6        2.05773  -0.00231   0.00000  -0.02818  -0.02818   2.02955
    D1       -0.00000  -0.00000   0.00000  -0.00000   0.00000   0.00000
    D2        3.14159  -0.00000   0.00000  -0.00000   0.00000   3.14159
    D3        3.14159   0.00000   0.00000  -0.00000   0.00000   3.14159
    D4       -0.00000  -0.00000   0.00000  -0.00000   0.00000   0.00000
         Item               Value     Threshold  Converged?
 Maximum Force            0.018051     0.000450     NO 
 RMS     Force            0.004819     0.000300     NO 
 Maximum Displacement     0.016612     0.001800     NO 
 RMS     Displacement     0.011272     0.001200     NO 
 Predicted change in Energy=-4.050244D-04
 GradGradGradGradGradGradGradGradGradGradGradGradGradGradGradGradGradGrad

                          Input orientation:                          
 ---------------------------------------------------------------------
 Center     Atomic      Atomic             Coordinates (Angstroms)
 Number     Number       Type             X           Y           Z
 ---------------------------------------------------------------------
      1          6           0       -0.595169    1.828094    0.000001
      2          6           0        0.722969    1.840606   -0.000001
      3          1           0       -1.174404    2.559041    0.552967
      4          1           0       -1.160426    1.086284   -0.552965
      5          1           0        1.288226    2.582416    0.552965
      6          1           0        1.302204    1.109659   -0.552967
 ---------------------------------------------------------------------
                    Distance matrix (angstroms):
                    1          2          3          4          5
     1  C    0.000000
     2  C    1.318198   0.000000
     3  H    1.084236   2.102843   0.000000
     4  H    1.084236   2.102843   1.841818   0.000000
     5  H    2.102843   1.084236   2.462740   3.075286   0.000000
     6  H    2.102843   1.084236   3.075286   2.462740   1.841818
                    6
     6  H    0.000000
 Stoichiometry    C2H4
 Framework group  C2H[SGH(C2H4)]
 Deg. of freedom     5
 Full point group                 C2H     NOp   4
 Largest Abelian subgroup         C2H     NOp   4
 Largest concise Abelian subgroup C2      NOp   2
                         Standard orientation:                         
 ---------------------------------------------------------------------
 Center     Atomic      Atomic             Coordinates (Angstroms)
 Number     Number       Type             X           Y           Z
 ---------------------------------------------------------------------
      1          6           0       -0.000000    0.659099    0.000000
      2          6           0       -0.000000   -0.659099    0.000000
      3          1           0       -0.920909    1.231370    0.000000
      4          1           0        0.920909    1.231370   -0.000000
      5          1           0       -0.920909   -1.231370   -0.000000
      6          1           0        0.920909   -1.231370    0.000000
 ---------------------------------------------------------------------
 Rotational constants (GHZ):         147.8219189          30.5578599          25.3230580
 Standard basis: def2TZVP (5D, 7F)
 There are    35 symmetry adapted cartesian basis functions of AG  symmetry.
 There are    13 symmetry adapted cartesian basis functions of BG  symmetry.
 There are    13 symmetry adapted cartesian basis functions of AU  symmetry.
 There are    35 symmetry adapted cartesian basis functions of BU  symmetry.
 There are    31 symmetry adapted basis functions of AG  symmetry.
 There are    12 symmetry adapted basis functions of BG  symmetry.
 There are    12 symmetry adapted basis functions of AU  symmetry.
 There are    31 symmetry adapted basis functions of BU  symmetry.
    86 basis functions,   134 primitive gaussians,    96 cartesian basis functions
     8 alpha electrons        8 beta electrons
       nuclear repulsion energy        33.5534692640 Hartrees.
 NAtoms=    6 NActive=    6 NUniq=    3 SFac= 4.00D+00 NAtFMM=   60 NAOKFM=F Big=F
 Integral buffers will be    131072 words long.
 Raffenetti 2 integral format.
 Two-electron integral symmetry is turned on.
 One-electron integrals computed using PRISM.
   4 Symmetry operations used in ECPInt.
 ECPInt:  NShTT=     741 NPrTT=    2136 LenC2=     742 LenP2D=    1976.
 LDataN:  DoStor=T MaxTD1= 6 Len=  172
 NBasis=    86 RedAO= T EigKep=  2.08D-04  NBF=    31    12    12    31
 NBsUse=    86 1.00D-06 EigRej= -1.00D+00 NBFU=    31    12    12    31
 Initial guess from the checkpoint file:  "checkpoint.chk"
 B after Tr=     0.000000   -0.000000   -0.000000
         Rot=    1.000000    0.000000   -0.000000    0.000000 Ang=   0.00 deg.
 Initial guess orbital symmetries:
       Occupied  (AG) (BU) (AG) (BU) (BU) (AG) (AG) (AU)
       Virtual   (BG) (AG) (BU) (BU) (AG) (AG) (BU) (AG) (AU) (BU)
                 (BG) (BU) (BU) (BU) (AG) (AG) (BG) (BU) (AG) (AU)
                 (AU) (AG) (AG) (BU) (BU) (AG) (BG) (BU) (AG) (AU)
                 (BU) (BU) (AG) (BG) (BU) (BU) (BG) (AG) (AU) (BG)
                 (AG) (AU) (AG) (BU) (AG) (BU) (BU) (AU) (BU) (AG)
                 (AG) (BG) (AG) (BU) (AU) (AG) (AU) (BG) (BU) (AG)
                 (BG) (AG) (BU) (BG) (AU) (BU) (BU) (AU) (AG) (AG)
                 (BU) (AG) (BG) (AG) (BU) (BU) (AG) (BU)
 Keep R1 ints in memory in symmetry-blocked form, NReq=10702699.
 Requested convergence on RMS density matrix=1.00D-08 within 128 cycles.
 Requested convergence on MAX density matrix=1.00D-06.
 Requested convergence on             energy=1.00D-06.
 No special actions if energy rises.
 SCF Done:  E(RM06) =  -78.5470613792     A.U. after    8 cycles
            NFock=  8  Conv=0.17D-08     -V/T= 2.0052
 DoSCS=F DFT=T ScalE2(SS,OS)=  1.000000  1.000000
 Range of M.O.s used for correlation:     1    86
 NBasis=    86 NAE=     8 NBE=     8 NFC=     0 NFV=     0
 NROrb=     86 NOA=     8 NOB=     8 NVA=    78 NVB=    78

 **** Warning!!: The largest alpha MO coefficient is  0.19735834D+02

   4 Symmetry operations used in ECPInt.
 ECPInt:  NShTT=     741 NPrTT=    2136 LenC2=     742 LenP2D=    1976.
 LDataN:  DoStor=T MaxTD1= 7 Len=  274
 Symmetrizing basis deriv contribution to polar:
 IMax=3 JMax=2 DiffMx= 0.00D+00
 G2DrvN: will do     7 centers at a time, making    1 passes.
 Calling FoFCou, ICntrl=  3107 FMM=F I1Cent=   0 AccDes= 0.00D+00.
 End of G2Drv F.D. properties file   721 does not exist.
 End of G2Drv F.D. properties file   722 does not exist.
 End of G2Drv F.D. properties file   788 does not exist.
          IDoAtm=111111
          Differentiating once with respect to electric field.
                with respect to dipole field.
          Differentiating once with respect to nuclear coordinates.
 Keep R1 ints in memory in symmetry-blocked form, NReq=10694392.
          There are    12 degrees of freedom in the 1st order CPHF.  IDoFFX=4 NUNeed=    12.
     12 vectors produced by pass  0 Test12= 5.20D-15 8.33D-09 XBig12= 3.17D+01 4.69D+00.
 AX will form    12 AO Fock derivatives at one time.
     12 vectors produced by pass  1 Test12= 5.20D-15 8.33D-09 XBig12= 6.50D+00 9.18D-01.
     12 vectors produced by pass  2 Test12= 5.20D-15 8.33D-09 XBig12= 3.98D-01 1.92D-01.
     12 vectors produced by pass  3 Test12= 5.20D-15 8.33D-09 XBig12= 5.63D-03 2.49D-02.
     12 vectors produced by pass  4 Test12= 5.20D-15 8.33D-09 XBig12= 6.79D-05 2.63D-03.
     12 vectors produced by pass  5 Test12= 5.20D-15 8.33D-09 XBig12= 5.48D-07 2.05D-04.
      6 vectors produced by pass  6 Test12= 5.20D-15 8.33D-09 XBig12= 3.05D-09 1.56D-05.
      3 vectors produced by pass  7 Test12= 5.20D-15 8.33D-09 XBig12= 1.95D-11 1.56D-06.
      1 vectors produced by pass  8 Test12= 5.20D-15 8.33D-09 XBig12= 5.98D-14 5.24D-08.
 InvSVY:  IOpt=1 It=  1 EMax= 2.20D-16
 Solved reduced A of dimension    82 with    12 vectors.
 Isotropic polarizability for W=    0.000000       25.02 Bohr**3.
 End of Minotr F.D. properties file   721 does not exist.
 End of Minotr F.D. properties file   722 does not exist.
 End of Minotr F.D. properties file   788 does not exist.
   4 Symmetry operations used in ECPInt.
 ECPInt:  NShTT=     741 NPrTT=    2136 LenC2=     742 LenP2D=    1976.
 LDataN:  DoStor=T MaxTD1= 8 Len=  415
 Calling FoFJK, ICntrl=    100127 FMM=F ISym2X=1 I1Cent= 0 IOpClX= 0 NMat=1 NMatS=1 NMatT=0.
 ***** Axes restored to original set *****
 -------------------------------------------------------------------
 Center     Atomic                   Forces (Hartrees/Bohr)
 Number     Number              X              Y              Z
 -------------------------------------------------------------------
      1        6          -0.000940221   -0.000008915    0.000000008
      2        6           0.000940221    0.000008915   -0.000000008
      3        1          -0.000006349    0.000008926    0.000006747
      4        1          -0.000006180   -0.000009051   -0.000006752
      5        1           0.000006180    0.000009051    0.000006752
      6        1           0.000006349   -0.000008926   -0.000006747
 -------------------------------------------------------------------
 Cartesian Forces:  Max     0.000940221 RMS     0.000313480
 FormGI is forming the generalized inverse of G from B-inverse, IUseBI=4.

 GradGradGradGradGradGradGradGradGradGradGradGradGradGradGradGradGradGrad
 Berny optimization.
 Using GEDIIS/GDIIS optimizer.
 Internal  Forces:  Max     0.000952793 RMS     0.000246100
 Search for a local minimum.
 Step number   2 out of a maximum of   25
 All quantities printed in internal units (Hartrees-Bohrs-Radians)
 Mixed Optimization -- En-DIIS/RFO-DIIS
 Second derivative matrix not updated -- analytic derivatives used.
 DE= -3.94D-04 DEPred=-4.05D-04 R= 9.72D-01
 TightC=F SS=  1.41D+00  RLast= 5.92D-02 DXNew= 5.0454D-01 1.7770D-01
 Trust test= 9.72D-01 RLast= 5.92D-02 DXMaxT set to 3.00D-01
 The second derivative matrix:
                          R1        R2        R3        R4        R5
           R1           0.65511
           R2           0.00655   0.35596
           R3           0.00655   0.00118   0.35596
           R4           0.00655   0.00056  -0.00048   0.35596
           R5           0.00655  -0.00048   0.00056   0.00118   0.35596
           A1           0.01079   0.00497  -0.01140  -0.00331   0.00423
           A2           0.01079  -0.01140   0.00497   0.00423  -0.00331
           A3          -0.02158   0.00643   0.00643  -0.00091  -0.00091
           A4           0.01079  -0.00331   0.00423   0.00497  -0.01140
           A5           0.01079   0.00423  -0.00331  -0.01140   0.00497
           A6          -0.02158  -0.00091  -0.00091   0.00643   0.00643
           D1           0.00000  -0.00000  -0.00000  -0.00000  -0.00000
           D2          -0.00000  -0.00000  -0.00000  -0.00000  -0.00000
           D3           0.00000  -0.00000  -0.00000  -0.00000  -0.00000
           D4           0.00000  -0.00000  -0.00000  -0.00000  -0.00000
                          A1        A2        A3        A4        A5
           A1           0.07750
           A2          -0.04291   0.07750
           A3          -0.03458  -0.03458   0.06917
           A4          -0.00868   0.00991  -0.00123   0.07750
           A5           0.00991  -0.00868  -0.00123  -0.04291   0.07750
           A6          -0.00123  -0.00123   0.00245  -0.03458  -0.03458
           D1          -0.00000  -0.00000   0.00000   0.00000  -0.00000
           D2          -0.00000  -0.00000   0.00000  -0.00000  -0.00000
           D3           0.00000   0.00000  -0.00000   0.00000   0.00000
           D4          -0.00000   0.00000  -0.00000  -0.00000  -0.00000
                          A6        D1        D2        D3        D4
           A6           0.06917
           D1          -0.00000   0.02544
           D2           0.00000   0.00810   0.03119
           D3          -0.00000   0.00810  -0.01500   0.03119
           D4           0.00000  -0.00924   0.00810   0.00810   0.02544
 ITU=  1  0
 Use linear search instead of GDIIS.
     Eigenvalues ---    0.03240   0.03468   0.04619   0.09945   0.10151
     Eigenvalues ---    0.10446   0.13637   0.35613   0.35637   0.35714
     Eigenvalues ---    0.35768   0.65817
 RFO step:  Lambda=-3.11348120D-07 EMin= 3.23961442D-02
 Quintic linear search produced a step of -0.03647.
 Iteration  1 RMS(Cart)=  0.00040561 RMS(Int)=  0.00000001
 Iteration  2 RMS(Cart)=  0.00000001 RMS(Int)=  0.00000000
 ClnCor:  largest displacement from symmetrization is 6.75D-10 for atom     4.
 Variable       Old X    -DE/DX   Delta X   Delta X   Delta X     New X
                                 (Linear)    (Quad)   (Total)
    R1        2.49103   0.00095   0.00121   0.00030   0.00151   2.49255
    R2        2.04891   0.00001   0.00009  -0.00008   0.00000   2.04891
    R3        2.04891   0.00001   0.00009  -0.00008   0.00000   2.04891
    R4        2.04891   0.00001   0.00009  -0.00008   0.00000   2.04891
    R5        2.04891   0.00001   0.00009  -0.00008   0.00000   2.04891
    A1        2.12682  -0.00000  -0.00051   0.00040  -0.00011   2.12670
    A2        2.12682  -0.00000  -0.00051   0.00040  -0.00011   2.12670
    A3        2.02955   0.00000   0.00103  -0.00080   0.00023   2.02978
    A4        2.12682  -0.00000  -0.00051   0.00040  -0.00011   2.12670
    A5        2.12682  -0.00000  -0.00051   0.00040  -0.00011   2.12670
    A6        2.02955   0.00000   0.00103  -0.00080   0.00023   2.02978
    D1       -0.00000   0.00000  -0.00000   0.00000   0.00000   0.00000
    D2        3.14159   0.00000   0.00000   0.00000   0.00000   3.14159
    D3        3.14159  -0.00000  -0.00000   0.00000  -0.00000   3.14159
    D4        0.00000  -0.00000  -0.00000   0.00000   0.00000   0.00000
         Item               Value     Threshold  Converged?
 Maximum Force            0.000953     0.000450     NO 
 RMS     Force            0.000246     0.000300     YES
 Maximum Displacement     0.000757     0.001800     YES
 RMS     Displacement     0.000406     0.001200     YES
 Predicted change in Energy=-7.062172D-07
 GradGradGradGradGradGradGradGradGradGradGradGradGradGradGradGradGradGrad

                          Input orientation:                          
 ---------------------------------------------------------------------
 Center     Atomic      Atomic             Coordinates (Angstroms)
 Number     Number       Type             X           Y           Z
 ---------------------------------------------------------------------
      1          6           0       -0.595570    1.828090    0.000001
      2          6           0        0.723370    1.840610   -0.000001
      3          1           0       -1.174701    2.559091    0.553007
      4          1           0       -1.160722    1.086229   -0.553004
      5          1           0        1.288522    2.582471    0.553004
      6          1           0        1.302501    1.109609   -0.553007
 ---------------------------------------------------------------------
                    Distance matrix (angstroms):
                    1          2          3          4          5
     1  C    0.000000
     2  C    1.319000   0.000000
     3  H    1.084237   2.103499   0.000000
     4  H    1.084237   2.103499   1.841950   0.000000
     5  H    2.103499   1.084237   2.463334   3.075840   0.000000
     6  H    2.103499   1.084237   3.075840   2.463334   1.841950
                    6
     6  H    0.000000
 Stoichiometry    C2H4
 Framework group  C2H[SGH(C2H4)]
 Deg. of freedom     5
 Full point group                 C2H     NOp   4
 Largest Abelian subgroup         C2H     NOp   4
 Largest concise Abelian subgroup C2      NOp   2
                         Standard orientation:                         
 ---------------------------------------------------------------------
 Center     Atomic      Atomic             Coordinates (Angstroms)
 Number     Number       Type             X           Y           Z
 ---------------------------------------------------------------------
      1          6           0       -0.000000    0.659500    0.000000
      2          6           0       -0.000000   -0.659500    0.000000
      3          1           0       -0.920975    1.231667   -0.000000
      4          1           0        0.920975    1.231667    0.000000
      5          1           0       -0.920975   -1.231667    0.000000
      6          1           0        0.920975   -1.231667   -0.000000
 ---------------------------------------------------------------------
 Rotational constants (GHZ):         147.8007282          30.5290110          25.3026224
 Standard basis: def2TZVP (5D, 7F)
 There are    35 symmetry adapted cartesian basis functions of AG  symmetry.
 There are    13 symmetry adapted cartesian basis functions of BG  symmetry.
 There are    13 symmetry adapted cartesian basis functions of AU  symmetry.
 There are    35 symmetry adapted cartesian basis functions of BU  symmetry.
 There are    31 symmetry adapted basis functions of AG  symmetry.
 There are    12 symmetry adapted basis functions of BG  symmetry.
 There are    12 symmetry adapted basis functions of AU  symmetry.
 There are    31 symmetry adapted basis functions of BU  symmetry.
    86 basis functions,   134 primitive gaussians,    96 cartesian basis functions
     8 alpha electrons        8 beta electrons
       nuclear repulsion energy        33.5425844875 Hartrees.
 NAtoms=    6 NActive=    6 NUniq=    3 SFac= 4.00D+00 NAtFMM=   60 NAOKFM=F Big=F
 Integral buffers will be    131072 words long.
 Raffenetti 2 integral format.
 Two-electron integral symmetry is turned on.
 One-electron integrals computed using PRISM.
   4 Symmetry operations used in ECPInt.
 ECPInt:  NShTT=     741 NPrTT=    2136 LenC2=     742 LenP2D=    1976.
 LDataN:  DoStor=T MaxTD1= 6 Len=  172
 NBasis=    86 RedAO= T EigKep=  2.09D-04  NBF=    31    12    12    31
 NBsUse=    86 1.00D-06 EigRej= -1.00D+00 NBFU=    31    12    12    31
 Initial guess from the checkpoint file:  "checkpoint.chk"
 B after Tr=    -0.000000    0.000000    0.000000
         Rot=    1.000000   -0.000000    0.000000    0.000000 Ang=   0.00 deg.
 Initial guess orbital symmetries:
       Occupied  (AG) (BU) (AG) (BU) (BU) (AG) (AG) (AU)
       Virtual   (BG) (AG) (BU) (BU) (AG) (AG) (AG) (BU) (AU) (BU)
                 (BG) (BU) (BU) (BU) (AG) (AG) (BG) (BU) (AG) (AU)
                 (AU) (AG) (AG) (BU) (BU) (AG) (BG) (BU) (AG) (AU)
                 (BU) (BU) (AG) (BG) (BU) (BU) (BG) (AG) (AU) (BG)
                 (AG) (AU) (AG) (BU) (AG) (BU) (BU) (AU) (AG) (AG)
                 (BU) (BG) (AG) (BU) (AU) (AG) (AU) (BG) (BU) (AG)
                 (BG) (AG) (BG) (BU) (BU) (AU) (BU) (AU) (AG) (AG)
                 (BU) (AG) (BG) (AG) (BU) (BU) (AG) (BU)
 Keep R1 ints in memory in symmetry-blocked form, NReq=10702699.
 Requested convergence on RMS density matrix=1.00D-08 within 128 cycles.
 Requested convergence on MAX density matrix=1.00D-06.
 Requested convergence on             energy=1.00D-06.
 No special actions if energy rises.
 SCF Done:  E(RM06) =  -78.5470620865     A.U. after    6 cycles
            NFock=  6  Conv=0.72D-08     -V/T= 2.0052
 DoSCS=F DFT=T ScalE2(SS,OS)=  1.000000  1.000000
 Range of M.O.s used for correlation:     1    86
 NBasis=    86 NAE=     8 NBE=     8 NFC=     0 NFV=     0
 NROrb=     86 NOA=     8 NOB=     8 NVA=    78 NVB=    78

 **** Warning!!: The largest alpha MO coefficient is  0.19698436D+02

   4 Symmetry operations used in ECPInt.
 ECPInt:  NShTT=     741 NPrTT=    2136 LenC2=     742 LenP2D=    1976.
 LDataN:  DoStor=T MaxTD1= 7 Len=  274
 Symmetrizing basis deriv contribution to polar:
 IMax=3 JMax=2 DiffMx= 0.00D+00
 G2DrvN: will do     7 centers at a time, making    1 passes.
 Calling FoFCou, ICntrl=  3107 FMM=F I1Cent=   0 AccDes= 0.00D+00.
 End of G2Drv F.D. properties file   721 does not exist.
 End of G2Drv F.D. properties file   722 does not exist.
 End of G2Drv F.D. properties file   788 does not exist.
          IDoAtm=111111
          Differentiating once with respect to electric field.
                with respect to dipole field.
          Differentiating once with respect to nuclear coordinates.
 Keep R1 ints in memory in symmetry-blocked form, NReq=10694392.
          There are    12 degrees of freedom in the 1st order CPHF.  IDoFFX=4 NUNeed=    12.
     12 vectors produced by pass  0 Test12= 5.20D-15 8.33D-09 XBig12= 3.18D+01 4.69D+00.
 AX will form    12 AO Fock derivatives at one time.
     12 vectors produced by pass  1 Test12= 5.20D-15 8.33D-09 XBig12= 6.53D+00 9.20D-01.
     12 vectors produced by pass  2 Test12= 5.20D-15 8.33D-09 XBig12= 4.00D-01 1.92D-01.
     12 vectors produced by pass  3 Test12= 5.20D-15 8.33D-09 XBig12= 5.66D-03 2.50D-02.
     12 vectors produced by pass  4 Test12= 5.20D-15 8.33D-09 XBig12= 6.82D-05 2.64D-03.
     12 vectors produced by pass  5 Test12= 5.20D-15 8.33D-09 XBig12= 5.50D-07 2.06D-04.
      6 vectors produced by pass  6 Test12= 5.20D-15 8.33D-09 XBig12= 3.04D-09 1.56D-05.
      3 vectors produced by pass  7 Test12= 5.20D-15 8.33D-09 XBig12= 1.95D-11 1.58D-06.
      1 vectors produced by pass  8 Test12= 5.20D-15 8.33D-09 XBig12= 6.00D-14 5.27D-08.
 InvSVY:  IOpt=1 It=  1 EMax= 5.15D-16
 Solved reduced A of dimension    82 with    12 vectors.
 Isotropic polarizability for W=    0.000000       25.03 Bohr**3.
 End of Minotr F.D. properties file   721 does not exist.
 End of Minotr F.D. properties file   722 does not exist.
 End of Minotr F.D. properties file   788 does not exist.
   4 Symmetry operations used in ECPInt.
 ECPInt:  NShTT=     741 NPrTT=    2136 LenC2=     742 LenP2D=    1976.
 LDataN:  DoStor=T MaxTD1= 8 Len=  415
 Calling FoFJK, ICntrl=    100127 FMM=F ISym2X=1 I1Cent= 0 IOpClX= 0 NMat=1 NMatS=1 NMatT=0.
 ***** Axes restored to original set *****
 -------------------------------------------------------------------
 Center     Atomic                   Forces (Hartrees/Bohr)
 Number     Number              X              Y              Z
 -------------------------------------------------------------------
      1        6           0.000011437    0.000000107   -0.000000001
      2        6          -0.000011437   -0.000000107    0.000000001
      3        1           0.000005526    0.000003005    0.000002217
      4        1           0.000005580   -0.000002900   -0.000002217
      5        1          -0.000005580    0.000002900    0.000002217
      6        1          -0.000005526   -0.000003005   -0.000002217
 -------------------------------------------------------------------
 Cartesian Forces:  Max     0.000011437 RMS     0.000004941
 FormGI is forming the generalized inverse of G from B-inverse, IUseBI=4.

 GradGradGradGradGradGradGradGradGradGradGradGradGradGradGradGradGradGrad
 Berny optimization.
 Using GEDIIS/GDIIS optimizer.
 Internal  Forces:  Max     0.000022544 RMS     0.000007104
 Search for a local minimum.
 Step number   3 out of a maximum of   25
 All quantities printed in internal units (Hartrees-Bohrs-Radians)
 Mixed Optimization -- En-DIIS/RFO-DIIS
 Swapping is turned off.
 Second derivative matrix not updated -- analytic derivatives used.
 DE= -7.07D-07 DEPred=-7.06D-07 R= 1.00D+00
 Trust test= 1.00D+00 RLast= 1.56D-03 DXMaxT set to 3.00D-01
 The second derivative matrix:
                          R1        R2        R3        R4        R5
           R1           0.65224
           R2           0.00654   0.35597
           R3           0.00654   0.00117   0.35597
           R4           0.00654   0.00056  -0.00048   0.35597
           R5           0.00654  -0.00048   0.00056   0.00117   0.35597
           A1           0.01078   0.00496  -0.01139  -0.00331   0.00422
           A2           0.01078  -0.01139   0.00496   0.00422  -0.00331
           A3          -0.02156   0.00643   0.00643  -0.00092  -0.00092
           A4           0.01078  -0.00331   0.00422   0.00496  -0.01139
           A5           0.01078   0.00422  -0.00331  -0.01139   0.00496
           A6          -0.02156  -0.00092  -0.00092   0.00643   0.00643
           D1           0.00000  -0.00000  -0.00000  -0.00000  -0.00000
           D2           0.00000  -0.00000  -0.00000  -0.00000  -0.00000
           D3           0.00000  -0.00000  -0.00000  -0.00000  -0.00000
           D4           0.00000  -0.00000  -0.00000  -0.00000  -0.00000
                          A1        A2        A3        A4        A5
           A1           0.07745
           A2          -0.04288   0.07745
           A3          -0.03457  -0.03457   0.06914
           A4          -0.00870   0.00993  -0.00123   0.07745
           A5           0.00993  -0.00870  -0.00123  -0.04288   0.07745
           A6          -0.00123  -0.00123   0.00245  -0.03457  -0.03457
           D1          -0.00000  -0.00000   0.00000   0.00000  -0.00000
           D2          -0.00000  -0.00000   0.00000  -0.00000  -0.00000
           D3           0.00000   0.00000  -0.00000   0.00000   0.00000
           D4          -0.00000   0.00000  -0.00000  -0.00000  -0.00000
                          A6        D1        D2        D3        D4
           A6           0.06914
           D1          -0.00000   0.02541
           D2           0.00000   0.00809   0.03117
           D3          -0.00000   0.00809  -0.01499   0.03117
           D4           0.00000  -0.00922   0.00809   0.00809   0.02541
 ITU=  0  1  0
     Eigenvalues ---    0.03237   0.03464   0.04616   0.09940   0.10140
     Eigenvalues ---    0.10442   0.13634   0.35615   0.35639   0.35714
     Eigenvalues ---    0.35769   0.65531
 En-DIIS/RFO-DIIS/Sim-DIIS IScMMF=       -3 using points:     3    2
 RFO step:  Lambda=-2.47221200D-09.
 DidBck=F Rises=F RFO-DIIS coefs:    1.00561   -0.00561
 Iteration  1 RMS(Cart)=  0.00004832 RMS(Int)=  0.00000001
 Iteration  2 RMS(Cart)=  0.00000000 RMS(Int)=  0.00000000
 ClnCor:  largest displacement from symmetrization is 9.43D-09 for atom     5.
 Variable       Old X    -DE/DX   Delta X   Delta X   Delta X     New X
                                 (Linear)    (Quad)   (Total)
    R1        2.49255  -0.00002   0.00001  -0.00004  -0.00003   2.49252
    R2        2.04891   0.00000   0.00000  -0.00000  -0.00000   2.04891
    R3        2.04891   0.00000   0.00000  -0.00000  -0.00000   2.04891
    R4        2.04891   0.00000   0.00000  -0.00000  -0.00000   2.04891
    R5        2.04891   0.00000   0.00000  -0.00000  -0.00000   2.04891
    A1        2.12670  -0.00000  -0.00000  -0.00004  -0.00004   2.12666
    A2        2.12670  -0.00000  -0.00000  -0.00004  -0.00004   2.12666
    A3        2.02978   0.00001   0.00000   0.00008   0.00008   2.02986
    A4        2.12670  -0.00000  -0.00000  -0.00004  -0.00004   2.12666
    A5        2.12670  -0.00000  -0.00000  -0.00004  -0.00004   2.12666
    A6        2.02978   0.00001   0.00000   0.00008   0.00008   2.02986
    D1       -0.00000  -0.00000   0.00000  -0.00000   0.00000   0.00000
    D2        3.14159  -0.00000   0.00000  -0.00000   0.00000   3.14159
    D3        3.14159   0.00000   0.00000  -0.00000   0.00000   3.14159
    D4       -0.00000  -0.00000   0.00000  -0.00000   0.00000   0.00000
         Item               Value     Threshold  Converged?
 Maximum Force            0.000023     0.000450     YES
 RMS     Force            0.000007     0.000300     YES
 Maximum Displacement     0.000083     0.001800     YES
 RMS     Displacement     0.000048     0.001200     YES
 Predicted change in Energy=-1.385842D-09
 Optimization completed.
    -- Stationary point found.
                           ----------------------------
                           !   Optimized Parameters   !
                           ! (Angstroms and Degrees)  !
 --------------------------                            --------------------------
 ! Name  Definition              Value          Derivative Info.                !
 --------------------------------------------------------------------------------
 ! R1    R(1,2)                  1.319          -DE/DX =    0.0                 !
 ! R2    R(1,3)                  1.0842         -DE/DX =    0.0                 !
 ! R3    R(1,4)                  1.0842         -DE/DX =    0.0                 !
 ! R4    R(2,5)                  1.0842         -DE/DX =    0.0                 !
 ! R5    R(2,6)                  1.0842         -DE/DX =    0.0                 !
 ! A1    A(2,1,3)              121.8511         -DE/DX =    0.0                 !
 ! A2    A(2,1,4)              121.8511         -DE/DX =    0.0                 !
 ! A3    A(3,1,4)              116.2977         -DE/DX =    0.0                 !
 ! A4    A(1,2,5)              121.8511         -DE/DX =    0.0                 !
 ! A5    A(1,2,6)              121.8511         -DE/DX =    0.0                 !
 ! A6    A(5,2,6)              116.2977         -DE/DX =    0.0                 !
 ! D1    D(3,1,2,5)              0.0            -DE/DX =    0.0                 !
 ! D2    D(3,1,2,6)            180.0            -DE/DX =    0.0                 !
 ! D3    D(4,1,2,5)            180.0            -DE/DX =    0.0                 !
 ! D4    D(4,1,2,6)              0.0            -DE/DX =    0.0                 !
 --------------------------------------------------------------------------------
 GradGradGradGradGradGradGradGradGradGradGradGradGradGradGradGradGradGrad

                          Input orientation:                          
 ---------------------------------------------------------------------
 Center     Atomic      Atomic             Coordinates (Angstroms)
 Number     Number       Type             X           Y           Z
 ---------------------------------------------------------------------
      1          6           0       -0.595570    1.828090    0.000001
      2          6           0        0.723370    1.840610   -0.000001
      3          1           0       -1.174701    2.559091    0.553007
      4          1           0       -1.160722    1.086229   -0.553004
      5          1           0        1.288522    2.582471    0.553004
      6          1           0        1.302501    1.109609   -0.553007
 ---------------------------------------------------------------------
                    Distance matrix (angstroms):
                    1          2          3          4          5
     1  C    0.000000
     2  C    1.319000   0.000000
     3  H    1.084237   2.103499   0.000000
     4  H    1.084237   2.103499   1.841950   0.000000
     5  H    2.103499   1.084237   2.463334   3.075840   0.000000
     6  H    2.103499   1.084237   3.075840   2.463334   1.841950
                    6
     6  H    0.000000
 Stoichiometry    C2H4
 Framework group  C2H[SGH(C2H4)]
 Deg. of freedom     5
 Full point group                 C2H     NOp   4
 Largest Abelian subgroup         C2H     NOp   4
 Largest concise Abelian subgroup C2      NOp   2
                         Standard orientation:                         
 ---------------------------------------------------------------------
 Center     Atomic      Atomic             Coordinates (Angstroms)
 Number     Number       Type             X           Y           Z
 ---------------------------------------------------------------------
      1          6           0       -0.000000    0.659500    0.000000
      2          6           0       -0.000000   -0.659500    0.000000
      3          1           0       -0.920975    1.231667    0.000000
      4          1           0        0.920975    1.231667    0.000000
      5          1           0       -0.920975   -1.231667   -0.000000
      6          1           0        0.920975   -1.231667    0.000000
 ---------------------------------------------------------------------
 Rotational constants (GHZ):         147.8007282          30.5290110          25.3026224

 **********************************************************************

            Population analysis using the SCF Density.

 **********************************************************************

 Orbital symmetries:
       Occupied  (AG) (BU) (AG) (BU) (BU) (AG) (AG) (AU)
       Virtual   (BG) (AG) (BU) (BU) (AG) (AG) (AG) (BU) (AU) (BU)
                 (BG) (BU) (BU) (BU) (AG) (AG) (BG) (BU) (AG) (AU)
                 (AU) (AG) (AG) (BU) (BU) (AG) (BG) (BU) (AG) (AU)
                 (BU) (BU) (AG) (BG) (BU) (BU) (BG) (AG) (AU) (BG)
                 (AG) (AU) (AG) (BU) (AG) (BU) (BU) (AU) (AG) (AG)
                 (BU) (BG) (AG) (BU) (AU) (AG) (AU) (BG) (BU) (AG)
                 (BG) (AG) (BG) (BU) (BU) (AU) (BU) (AU) (AG) (AG)
                 (BU) (AG) (BG) (AG) (BU) (BU) (AG) (BU)
 The electronic state is 1-AG.
 Alpha  occ. eigenvalues --  -10.23567 -10.23468  -0.77408  -0.58962  -0.48248
 Alpha  occ. eigenvalues --   -0.43427  -0.36449  -0.29122
 Alpha virt. eigenvalues --    0.00508   0.06522   0.08053   0.08570   0.12842
 Alpha virt. eigenvalues --    0.19551   0.21377   0.21403   0.22757   0.27209
 Alpha virt. eigenvalues --    0.31309   0.33740   0.37980   0.41741   0.43075
 Alpha virt. eigenvalues --    0.45447   0.54316   0.55788   0.60074   0.72227
 Alpha virt. eigenvalues --    0.77064   0.78232   0.88653   0.93141   1.03047
 Alpha virt. eigenvalues --    1.06518   1.08908   1.21788   1.31179   1.42086
 Alpha virt. eigenvalues --    1.49641   1.49681   1.53826   1.58548   1.67877
 Alpha virt. eigenvalues --    1.68021   1.70001   1.74326   1.78280   1.80686
 Alpha virt. eigenvalues --    1.96779   2.16098   2.21476   2.23199   2.32041
 Alpha virt. eigenvalues --    2.37823   2.40133   2.51858   2.56987   2.57647
 Alpha virt. eigenvalues --    2.57800   2.71174   2.80314   2.89325   2.91418
 Alpha virt. eigenvalues --    2.93188   2.99509   3.03684   3.09429   3.10870
 Alpha virt. eigenvalues --    3.13381   3.23222   3.34494   3.35307   3.38725
 Alpha virt. eigenvalues --    3.38763   3.58000   3.67720   3.95364   3.95471
 Alpha virt. eigenvalues --    4.06929   4.28725   4.31647   4.51208   4.51746
 Alpha virt. eigenvalues --    4.74352  21.90347  22.56378
          Condensed to atoms (all electrons):
               1          2          3          4          5          6
     1  C    4.950266   0.499543   0.416805   0.416805  -0.047086  -0.047086
     2  C    0.499543   4.950266  -0.047086  -0.047086   0.416805   0.416805
     3  H    0.416805  -0.047086   0.564371  -0.027566  -0.006166   0.005021
     4  H    0.416805  -0.047086  -0.027566   0.564371   0.005021  -0.006166
     5  H   -0.047086   0.416805  -0.006166   0.005021   0.564371  -0.027566
     6  H   -0.047086   0.416805   0.005021  -0.006166  -0.027566   0.564371
 Mulliken charges:
               1
     1  C   -0.189246
     2  C   -0.189246
     3  H    0.094623
     4  H    0.094623
     5  H    0.094623
     6  H    0.094623
 Sum of Mulliken charges =  -0.00000
 Mulliken charges with hydrogens summed into heavy atoms:
               1
     1  C   -0.000000
     2  C   -0.000000
 APT charges:
               1
     1  C   -0.068052
     2  C   -0.068052
     3  H    0.034026
     4  H    0.034026
     5  H    0.034026
     6  H    0.034026
 Sum of APT charges =  -0.00000
 APT charges with hydrogens summed into heavy atoms:
               1
     1  C    0.000000
     2  C   -0.000000
 Electronic spatial extent (au):  <R**2>=             82.2901
 Charge=             -0.0000 electrons
 Dipole moment (field-independent basis, Debye):
    X=              0.0000    Y=             -0.0000    Z=             -0.0000  Tot=              0.0000
 Quadrupole moment (field-independent basis, Debye-Ang):
   XX=            -12.3946   YY=            -12.2965   ZZ=            -15.4806
   XY=             -0.0000   XZ=              0.0000   YZ=              0.0000
 Traceless Quadrupole moment (field-independent basis, Debye-Ang):
   XX=              0.9959   YY=              1.0941   ZZ=             -2.0900
   XY=             -0.0000   XZ=              0.0000   YZ=              0.0000
 Octapole moment (field-independent basis, Debye-Ang**2):
  XXX=              0.0000  YYY=             -0.0000  ZZZ=             -0.0000  XYY=             -0.0000
  XXY=              0.0000  XXZ=              0.0000  XZZ=              0.0000  YZZ=              0.0000
  YYZ=             -0.0000  XYZ=             -0.0000
 Hexadecapole moment (field-independent basis, Debye-Ang**3):
 XXXX=            -27.2263 YYYY=            -68.1622 ZZZZ=            -18.8062 XXXY=              0.0000
 XXXZ=              0.0000 YYYX=             -0.0000 YYYZ=             -0.0000 ZZZX=              0.0000
 ZZZY=             -0.0000 XXYY=            -13.3598 XXZZ=             -8.3284 YYZZ=            -15.2895
 XXYZ=             -0.0000 YYXZ=              0.0000 ZZXY=             -0.0000
 N-N= 3.354258448751D+01 E-N=-2.488306991395D+02  KE= 7.813779558973D+01
 Symmetry AG   KE= 3.970082625105D+01
 Symmetry BG   KE= 1.990825179684D-20
 Symmetry AU   KE= 2.104394790373D+00
 Symmetry BU   KE= 3.633257454831D+01
  Exact polarizability:      22.889       0.000      34.873      -0.000       0.000      17.325
 Approx polarizability:      29.082      -0.000      49.008      -0.000       0.000      22.151
 Rotating derivatives to standard orientation.
 Full mass-weighted force constant matrix:
 Low frequencies ---  -19.4663   -0.0011   -0.0008   -0.0003    6.8648   21.5475
 Low frequencies ---  813.1034  966.1738  975.5502
 Diagonal vibrational polarizability:
        0.0495625       0.1459584       2.7340657
 Harmonic frequencies (cm**-1), IR intensities (KM/Mole), Raman scattering
 activities (A**4/AMU), depolarization ratios for plane and unpolarized
 incident light, reduced masses (AMU), force constants (mDyne/A),
 and normal coordinates:
                      1                      2                      3
                     BU                     AU                     BG
 Frequencies --    813.1034               966.1738               975.5502
 Red. masses --      1.0429                 1.1607                 1.5233
 Frc consts  --      0.4062                 0.6384                 0.8542
 IR Inten    --      0.1979                94.8389                 0.0000
  Atom  AN      X      Y      Z        X      Y      Z        X      Y      Z
     1   6    -0.04   0.00   0.00     0.00  -0.00  -0.08     0.00   0.00   0.15
     2   6    -0.04   0.00  -0.00    -0.00   0.00  -0.08     0.00   0.00  -0.15
     3   1     0.24   0.44  -0.00     0.00  -0.00   0.50    -0.00  -0.00  -0.49
     4   1     0.24  -0.44  -0.00    -0.00   0.00   0.50    -0.00   0.00  -0.49
     5   1     0.24  -0.44   0.00     0.00  -0.00   0.50    -0.00   0.00   0.49
     6   1     0.24   0.44   0.00    -0.00   0.00   0.50    -0.00  -0.00   0.49
                      4                      5                      6
                     AU                     AG                     AG
 Frequencies --   1058.7087              1216.6950              1364.2867
 Red. masses --      1.0078                 1.5316                 1.1482
 Frc consts  --      0.6656                 1.3358                 1.2591
 IR Inten    --      0.0000                 0.0000                 0.0000
  Atom  AN      X      Y      Z        X      Y      Z        X      Y      Z
     1   6    -0.00  -0.00  -0.00     0.15  -0.00   0.00     0.00   0.08   0.00
     2   6     0.00   0.00  -0.00    -0.15   0.00   0.00    -0.00  -0.08   0.00
     3   1    -0.00  -0.00   0.50    -0.14  -0.47  -0.00     0.21   0.45   0.00
     4   1     0.00  -0.00  -0.50    -0.14   0.47  -0.00    -0.21   0.45  -0.00
     5   1    -0.00   0.00  -0.50     0.14  -0.47  -0.00     0.21  -0.45  -0.00
     6   1     0.00   0.00   0.50     0.14   0.47  -0.00    -0.21  -0.45   0.00
                      7                      8                      9
                     BU                     AG                     BU
 Frequencies --   1444.9911              1697.1234              3125.8317
 Red. masses --      1.1115                 3.7410                 1.0481
 Frc consts  --      1.3674                 6.3484                 6.0337
 IR Inten    --      8.2393                 0.0000                14.4380
  Atom  AN      X      Y      Z        X      Y      Z        X      Y      Z
     1   6    -0.00  -0.07  -0.00     0.00   0.35  -0.00    -0.00   0.04  -0.00
     2   6    -0.00  -0.07   0.00    -0.00  -0.35  -0.00    -0.00   0.04   0.00
     3   1     0.28   0.41   0.00    -0.39  -0.19   0.00     0.43  -0.25   0.00
     4   1    -0.28   0.41   0.00     0.39  -0.19  -0.00    -0.43  -0.25   0.00
     5   1    -0.28   0.41  -0.00    -0.39   0.19  -0.00    -0.43  -0.25  -0.00
     6   1     0.28   0.41  -0.00     0.39   0.19   0.00     0.43  -0.25  -0.00
                     10                     11                     12
                     AG                     AG                     BU
 Frequencies --   3140.4949              3207.3111              3232.2832
 Red. masses --      1.0758                 1.1140                 1.1175
 Frc consts  --      6.2513                 6.7518                 6.8788
 IR Inten    --      0.0000                 0.0000                16.1141
  Atom  AN      X      Y      Z        X      Y      Z        X      Y      Z
     1   6    -0.00   0.06   0.00    -0.07  -0.00  -0.00    -0.07  -0.00   0.00
     2   6     0.00  -0.06   0.00     0.07   0.00  -0.00    -0.07  -0.00  -0.00
     3   1     0.43  -0.26   0.00     0.42  -0.27  -0.00     0.42  -0.27  -0.00
     4   1    -0.43  -0.26  -0.00     0.42   0.27   0.00     0.42   0.27  -0.00
     5   1     0.43   0.26  -0.00    -0.42  -0.27   0.00     0.42   0.27   0.00
     6   1    -0.43   0.26   0.00    -0.42   0.27  -0.00     0.42  -0.27   0.00

 -------------------
 - Thermochemistry -
 -------------------
 Temperature   298.150 Kelvin.  Pressure   1.00000 Atm.
 Atom     1 has atomic number  6 and mass  12.00000
 Atom     2 has atomic number  6 and mass  12.00000
 Atom     3 has atomic number  1 and mass   1.00783
 Atom     4 has atomic number  1 and mass   1.00783
 Atom     5 has atomic number  1 and mass   1.00783
 Atom     6 has atomic number  1 and mass   1.00783
 Molecular mass:    28.03130 amu.
 Principal axes and moments of inertia in atomic units:
                           1         2         3
     Eigenvalues --    12.21064  59.11561  71.32625
           X           -0.00000   1.00000   0.00000
           Y            1.00000   0.00000   0.00000
           Z           -0.00000  -0.00000   1.00000
 This molecule is an asymmetric top.
 Rotational symmetry number  2.
 Rotational temperatures (Kelvin)      7.09332     1.46516     1.21433
 Rotational constants (GHZ):         147.80073    30.52901    25.30262
 Zero-point vibrational energy     133040.0 (Joules/Mol)
                                   31.79733 (Kcal/Mol)
 Vibrational temperatures:   1169.87  1390.11  1403.60  1523.25  1750.55
          (Kelvin)           1962.90  2079.02  2441.78  4497.37  4518.47
                             4614.61  4650.53
 
 Zero-point correction=                           0.050672 (Hartree/Particle)
 Thermal correction to Energy=                    0.053724
 Thermal correction to Enthalpy=                  0.054668
 Thermal correction to Gibbs Free Energy=         0.029157
 Sum of electronic and zero-point Energies=            -78.496390
 Sum of electronic and thermal Energies=               -78.493338
 Sum of electronic and thermal Enthalpies=             -78.492394
 Sum of electronic and thermal Free Energies=          -78.517905
 
                     E (Thermal)             CV                S
                      KCal/Mol        Cal/Mol-Kelvin    Cal/Mol-Kelvin
 Total                   33.712              8.171             53.692
 Electronic               0.000              0.000              0.000
 Translational            0.889              2.981             35.927
 Rotational               0.889              2.981             17.205
 Vibrational             31.935              2.209              0.560
                       Q            Log10(Q)             Ln(Q)
 Total Bot       0.387875D-13        -13.411308        -30.880678
 Total V=0       0.787580D+10          9.896295         22.787061
 Vib (Bot)       0.517741D-23        -23.285887        -53.617737
 Vib (V=0)       0.105127D+01          0.021716          0.050002
 Electronic      0.100000D+01          0.000000          0.000000
 Translational   0.583336D+07          6.765919         15.579104
 Rotational      0.128428D+04          3.108661          7.157956
 ***** Axes restored to original set *****
 -------------------------------------------------------------------
 Center     Atomic                   Forces (Hartrees/Bohr)
 Number     Number              X              Y              Z
 -------------------------------------------------------------------
      1        6           0.000011437    0.000000107   -0.000000001
      2        6          -0.000011437   -0.000000107    0.000000001
      3        1           0.000005526    0.000003005    0.000002217
      4        1           0.000005580   -0.000002900   -0.000002217
      5        1          -0.000005580    0.000002900    0.000002217
      6        1          -0.000005526   -0.000003005   -0.000002217
 -------------------------------------------------------------------
 Cartesian Forces:  Max     0.000011437 RMS     0.000004941
 Dipole is zero, so no output in dipole orientation.

 ----------------------------------------------------------------------

 Electric dipole moment (input orientation):
 (Debye = 10**-18 statcoulomb cm , SI units = C m)
                  (au)            (Debye)         (10**-30 SI)
   Tot        0.000000D+00      0.000000D+00      0.000000D+00
   x          0.000000D+00      0.000000D+00      0.000000D+00
   y          0.000000D+00      0.000000D+00      0.000000D+00
   z          0.000000D+00      0.000000D+00      0.000000D+00

 Dipole polarizability, Alpha (input orientation).
 (esu units = cm**3 , SI units = C**2 m**2 J**-1)
 Alpha(0;0):
               (au)            (10**-24 esu)      (10**-40 SI)
   iso        0.250290D+02      0.370891D+01      0.412672D+01
   aniso      0.155320D+02      0.230161D+01      0.256088D+01
   xx         0.348717D+02      0.516745D+01      0.574956D+01
   yx         0.132783D+00      0.196764D-01      0.218930D-01
   yy         0.208841D+02      0.309470D+01      0.344332D+01
   zx        -0.253674D-01     -0.375906D-02     -0.418252D-02
   zy         0.267108D+01      0.395813D+00      0.440402D+00
   zz         0.193312D+02      0.286459D+01      0.318729D+01

 ----------------------------------------------------------------------
 Unable to Open any file for archive entry.
 1\1\GINC-GADI-CPU-CLX-1411\Freq\RM06\def2TZVP\C2H4\PK8622\23-Jun-2020\
 0\\# M06/Def2TZVP Freq=(anharmonic,ReadAnharm) Opt=CalcAll\\Anharmonic
  frequencies for ethene using VPT2\\0,1\C,-0.5955701171,1.828090367,0.
 0000005841\C,0.7233701171,1.840609633,-0.0000005841\H,-1.1747012231,2.
 5590907176,0.5530065077\H,-1.160721901,1.0862285713,-0.5530043345\H,1.
 288521901,2.5824714287,0.5530043345\H,1.3025012231,1.1096092824,-0.553
 0065077\\Version=ES64L-G16RevC.01\State=1-AG\HF=-78.5470621\RMSD=7.190
 e-09\RMSF=4.941e-06\ZeroPoint=0.0506723\Thermal=0.0537239\ETot=-78.493
 3382\HTot=-78.492394\GTot=-78.517905\Dipole=0.,0.,0.\DipoleDeriv=-0.01
 08178,0.000304,-0.0017598,0.000304,-0.0428223,0.185391,-0.0017598,0.18
 5391,-0.1505155,-0.0108179,0.000304,-0.0017598,0.000304,-0.0428223,0.1
 853909,-0.0017598,0.1853909,-0.1505155,0.0045354,0.0308403,0.0241569,0
 .0608802,0.0222847,-0.0924746,0.0467127,-0.0922605,0.0752577,0.0062824
 ,-0.0311442,-0.0223971,-0.0611842,0.0205376,-0.0929164,-0.0449528,-0.0
 931305,0.0752578,0.0062824,-0.0311442,-0.0223971,-0.0611841,0.0205376,
 -0.0929164,-0.0449528,-0.0931305,0.0752578,0.0045354,0.0308403,0.02415
 69,0.0608802,0.0222847,-0.0924746,0.0467127,-0.0922605,0.0752577\Polar
 =34.8716567,0.1327832,20.8840779,-0.0253674,2.6710813,19.3312332\PG=C0
 2H [SGH(C2H4)]\NImag=0\\0.87376307,0.00410501,0.44135081,-0.00236010,0
 .24858888,0.29691093,-0.59102407,-0.00478155,0.00027131,0.87376307,-0.
 00478155,-0.08732198,-0.02853503,0.00410501,0.44135081,0.00027131,-0.0
 2853503,-0.07070110,-0.00236010,0.24858888,0.29691093,-0.12951312,0.09
 767199,0.07400007,-0.01393425,0.02303878,0.01744185,0.13762254,0.10082
 681,-0.17954573,-0.10804426,-0.00195624,0.00460933,-0.00112470,-0.1093
 4722,0.18041381,0.07636890,-0.10802177,-0.11826204,-0.00132588,-0.0013
 0287,0.00515697,-0.08291392,0.11819547,0.11337719,-0.12576415,-0.09665
 111,-0.07193581,-0.01352748,-0.02338312,-0.01741733,0.00893624,0.01097
 456,0.00819557,0.13348770,-0.09980593,-0.18329496,-0.10942929,0.001611
 90,0.00420253,-0.00145559,-0.01064168,-0.00859822,-0.00837340,0.108456
 51,0.18454894,-0.07430464,-0.10945178,-0.11826178,0.00135040,-0.001277
 43,0.00515700,-0.00803517,-0.00852748,-0.00369109,0.08065535,0.1197478
 7,0.11337691,-0.01352748,-0.02338312,-0.01741733,-0.12576415,-0.096651
 11,-0.07193581,0.00152812,0.00014943,0.00003867,-0.00466043,0.00045372
 ,0.00046356,0.13348770,0.00161190,0.00420253,-0.00145559,-0.09980593,-
 0.18329496,-0.10942929,-0.00007453,-0.00241638,0.00478460,0.00045372,0
 .00555809,-0.00527419,0.10845651,0.18454894,0.00135040,-0.00127743,0.0
 0515700,-0.07430464,-0.10945178,-0.11826178,-0.00012950,0.00478300,-0.
 00519556,0.00046356,-0.00527419,0.00861451,0.08065535,0.11974787,0.113
 37691,-0.01393425,0.02303878,0.01744185,-0.12951312,0.09767199,0.07400
 007,-0.00463953,-0.00064734,-0.00036334,0.00152812,-0.00007453,-0.0001
 2950,0.00893624,-0.01064168,-0.00803517,0.13762254,-0.00195624,0.00460
 933,-0.00112470,0.10082681,-0.17954573,-0.10804426,-0.00064734,0.00553
 718,-0.00528204,0.00014943,-0.00241638,0.00478300,0.01097456,-0.008598
 22,-0.00852748,-0.10934722,0.18041381,-0.00132588,-0.00130287,0.005156
 97,0.07636890,-0.10802177,-0.11826204,-0.00036334,-0.00528204,0.008614
 52,0.00003867,0.00478460,-0.00519556,0.00819557,-0.00837340,-0.0036910
 9,-0.08291392,0.11819547,0.11337719\\-0.00001144,-0.00000011,0.,0.0000
 1144,0.00000011,0.,-0.00000553,-0.00000300,-0.00000222,-0.00000558,0.0
 0000290,0.00000222,0.00000558,-0.00000290,-0.00000222,0.00000553,0.000
 00300,0.00000222\\\@
 The archive entry for this job was punched.


 The lyf so short, the craft so long to lerne.
                             -- Chaucer
 Job cpu time:       0 days  0 hours  3 minutes  5.9 seconds.
 Elapsed time:       0 days  0 hours  0 minutes 47.2 seconds.
 File lengths (MBytes):  RWF=     10 Int=      0 D2E=      0 Chk=     38 Scr=      1
 Normal termination of Gaussian 16 at Tue Jun 23 13:21:45 2020.
 Link1:  Proceeding to internal job step number  2.
 ------------------------------------------------------------------
 #N Geom=AllCheck Guess=TCheck SCRF=Check GenChk RM06/def2TZVP Freq
 ------------------------------------------------------------------
 1/10=4,29=7,30=1,38=21,40=1,80=1/1,6,3;
 2/12=2,40=1/2;
 3/5=44,7=101,11=2,14=-4,25=1,30=1,70=2,71=2,74=-54,116=1,140=1/1,2,3;
 4/5=101,69=2/1;
 5/5=2,38=6,98=1/2;
 8/6=4,10=90,11=11/1;
 11/6=1,8=1,9=11,15=111,16=1/1,2,10;
 10/6=1,60=-2/2;
 6/7=2,8=2,9=2,10=2,28=1/1;
 7/10=1,25=1,71=2,72=1/1,2,3,16;
 1/38=20,80=1/6(3);
 7/8=1,25=202,44=-1,71=1,72=1,92=10/16,17;
 1/10=4,30=1,38=20,80=1/3;
 99//99;
 3/5=44,7=101,11=2,14=-2,25=1,30=1,70=5,71=2,74=-54,116=1,140=1/1,2,3;
 4/5=5,16=3,69=2/1;
 5/5=2,38=5,98=1/2;
 8/6=4,10=90,11=11/1;
 11/6=1,8=1,9=11,15=111,16=1/1,2,10;
 10/6=1,60=-2/2;
 6/7=2,8=2,9=2,10=2,28=1/1;
 7/7=1,10=1,25=1,71=1,72=1/1,2,3,16;
 1/38=20,80=1/6(-8);
 7/8=1,25=202,44=-1,71=1,72=1,92=10/16,17;
 1/10=4,30=1,38=20,80=1/3;
 99//99;
 Structure from the checkpoint file:  "checkpoint.chk"
 --------------------------------------------
 Anharmonic frequencies for ethene using VPT2
 --------------------------------------------
 Charge =  0 Multiplicity = 1
 Redundant internal coordinates found in file.  (old form).
 C,0,-0.5955701171,1.828090367,0.0000005841
 C,0,0.7233701171,1.840609633,-0.0000005841
 H,0,-1.1747012231,2.5590907176,0.5530065077
 H,0,-1.160721901,1.0862285713,-0.5530043345
 H,0,1.288521901,2.5824714287,0.5530043345
 H,0,1.3025012231,1.1096092824,-0.5530065077
 Recover connectivity data from disk.
 Numerical evaluation of third derivatives.
 Nuclear step= 0.010000 Angstroms, electric field step= 0.000333 atomic units, NStep=1.

 GradGradGradGradGradGradGradGradGradGradGradGradGradGradGradGradGradGrad
 Berny optimization.
 Initialization pass.
                           ----------------------------
                           !    Initial Parameters    !
                           ! (Angstroms and Degrees)  !
 --------------------------                            --------------------------
 ! Name  Definition              Value          Derivative Info.                !
 --------------------------------------------------------------------------------
 ! R1    R(1,2)                  1.319          calculate D2E/DX2 analytically  !
 ! R2    R(1,3)                  1.0842         calculate D2E/DX2 analytically  !
 ! R3    R(1,4)                  1.0842         calculate D2E/DX2 analytically  !
 ! R4    R(2,5)                  1.0842         calculate D2E/DX2 analytically  !
 ! R5    R(2,6)                  1.0842         calculate D2E/DX2 analytically  !
 ! A1    A(2,1,3)              121.8511         calculate D2E/DX2 analytically  !
 ! A2    A(2,1,4)              121.8511         calculate D2E/DX2 analytically  !
 ! A3    A(3,1,4)              116.2977         calculate D2E/DX2 analytically  !
 ! A4    A(1,2,5)              121.8511         calculate D2E/DX2 analytically  !
 ! A5    A(1,2,6)              121.8511         calculate D2E/DX2 analytically  !
 ! A6    A(5,2,6)              116.2977         calculate D2E/DX2 analytically  !
 ! D1    D(3,1,2,5)              0.0            calculate D2E/DX2 analytically  !
 ! D2    D(3,1,2,6)            180.0            calculate D2E/DX2 analytically  !
 ! D3    D(4,1,2,5)            180.0            calculate D2E/DX2 analytically  !
 ! D4    D(4,1,2,6)              0.0            calculate D2E/DX2 analytically  !
 --------------------------------------------------------------------------------
[...]
 2969,-0.00302490,-0.00068419,-0.00410292,0.00187652,-0.00225415,-0.002
 10147,-0.05075633,-0.08665604,-0.01899213,-0.00126617,-0.00009456,-0.0
 0008771,0.04304240,0.07098666,0.05270653,0.00000584,0.00059610,0.00046
 808,-0.00066625,-0.00062888,-0.00049769,-0.03903516,-0.00400674,-0.004
 52286,-0.00065630,0.07119097,0.07766513,0.08810382,-0.00062936,0.00177
 182,-0.00082821,-0.00062878,-0.00114909,0.00232736,-0.06840267,-0.0703
 4671,-0.00302521,-0.00068419,-0.00410292,0.05285994,0.08810528,0.02542
 969,-0.00045207,-0.00083695,0.00225561,-0.00049762,0.00232736,-0.00249
 165,-0.05075665,-0.08665649,-0.01899247,-0.00134564,0.00015587,0.00010
 089,0.04575285,-0.07159249,-0.05436956,-0.00068937,0.00063681,0.000452
 82,0.00000584,-0.00062945,-0.00045214,-0.00207913,0.00248275,0.0018762
 0,-0.04164238,0.00406737,-0.00444474,-0.00065518,-0.07179660,0.0749542
 7,0.08708772,0.00063672,-0.00112445,0.00233684,0.00059601,0.00177182,-
 0.00083695,-0.00245748,-0.00342039,-0.00225371,0.06894743,-0.06773871,
 0.00303787,-0.00062730,-0.00410345,-0.05452282,0.08708626,0.02542977,0
 .00045275,0.00233683,-0.00249130,0.00046801,-0.00082821,0.00225561,-0.
 00183322,-0.00228893,-0.00210114,0.05239244,-0.08567745,-0.01899237,-0
 .09131747,0.00062846,-0.15754172,0.00149609,-0.15761931,-0.06598940,0.
 01561210,-0.00002213,-0.00001759,-0.09131955,-0.00002213,0.01790609,0.
 00182555,0.00062843,-0.15754172,-0.00001759,0.00182555,0.01684587,0.00
 149609,-0.15761931,-0.06598940,0.04146932,-0.06345613,-0.04818566,-0.0
 0243030,-0.00060660,-0.00043644,-0.03576015,-0.06839876,0.06905613,0.0
 7798726,0.00666288,-0.00042507,-0.00054636,0.06175736,-0.06761138,-0.0
 5189687,0.07795203,0.02474221,0.00502191,-0.00049454,-0.00016780,0.046
 90488,-0.08059020,-0.02171309,0.03897719,0.06288512,0.04669652,-0.0023
 1421,0.00057168,0.00044745,-0.00240621,-0.00194904,-0.00146770,-0.0334
 2791,0.06782793,0.07154871,0.07888766,-0.00669847,-0.00053985,-0.00053
 732,0.00189317,0.00052706,0.00263636,-0.06110856,-0.06994439,0.0504078
 8,0.07892289,0.02474216,-0.00501140,-0.00058915,-0.00016729,0.00141725
 ,0.00266375,-0.00101204,-0.04536667,-0.08146603,-0.02171322,-0.0023143
 7,0.00057167,0.00044745,0.03897805,0.06288513,0.04669652,-0.00037422,0
 .00072621,0.00057524,-0.00045310,-0.00112622,-0.00088549,-0.03342826,-
 0.00669894,-0.00053985,-0.00053732,0.06782921,0.07154872,0.07888766,-0
 .00078159,0.00255732,-0.00094961,-0.00112613,-0.00415094,0.00143020,-0
 .06110905,-0.06994507,-0.00501176,-0.00058915,-0.00016729,0.05040883,0
 .07892290,0.02474216,-0.00055690,-0.00096036,0.00311232,-0.00088542,0.
 00143020,-0.00496481,-0.04536704,-0.08146653,-0.02171359,-0.00243047,-
 0.00060660,-0.00043644,0.04147021,-0.06345612,-0.04818566,-0.00049626,
 0.00119481,0.00085758,-0.00037422,-0.00078168,-0.00055697,-0.00240657,
 0.00189266,0.00141688,-0.03576052,0.00666335,-0.00042506,-0.00054636,-
 0.06840002,0.06905611,0.07798726,0.00119472,-0.00410626,0.00144719,0.0
 0072611,0.00255732,-0.00096036,-0.00194856,0.00052773,0.00266424,0.061
 75785,-0.06761203,0.00502226,-0.00049454,-0.00016780,-0.05189782,0.077
 95202,0.02474220,0.00085751,0.00144719,-0.00496446,0.00057517,-0.00094
 961,0.00311232,-0.00146734,0.00263686,-0.00101166,0.04690525,-0.080590
 70,-0.02171347,-0.08317790,0.00047224,-0.13293410,0.00101830,-0.107278
 70,-0.07062227,0.06769600,0.00050732,-0.00006285,-0.08317894,0.0005073
 2,0.01421166,0.00658488,0.00047223,-0.13293408,-0.00006285,0.00658488,
 0.01038181,0.00101830,-0.10727868,-0.07062226,0.01291784,-0.05049071,-
 0.03806784,-0.00422899,-0.00134764,-0.00097213,-0.00350737,-0.05563913
 ,0.06118146,0.05311715,0.00640280,-0.00276874,-0.00313775,0.04931580,-
 0.05916415,-0.04193358,0.05308046,0.03112258,0.00484736,-0.00308251,-0
 .00099972,0.03711078,-0.05073580,-0.03042187,0.01092132,0.04953645,0.0
 3705264,-0.00413208,0.00132272,0.00103225,-0.00357849,-0.00145711,-0.0
 0107350,-0.00165591,0.05468507,0.06317829,0.05382995,-0.00642840,-0.00
 286429,-0.00311806,0.00137074,0.00096045,0.00123066,-0.04822409,-0.061
 01630,0.04091853,0.05386665,0.03112254,-0.00478775,-0.00317331,-0.0009
 9919,0.00104981,0.00125081,0.00024014,-0.03614109,-0.05143108,-0.03042
 200,-0.00413202,0.00132273,0.00103225,0.01092189,0.04953645,0.03705264
 ,-0.00036936,0.00010519,0.00008628,-0.00118396,-0.00128399,-0.00095723
 ,-0.00165621,-0.00642853,-0.00286429,-0.00311805,0.05468593,0.06317829
 ,0.05382994,-0.00011309,0.00006073,-0.00044475,-0.00128390,-0.00032097
 ,-0.00006547,-0.04822453,-0.06101693,-0.00478785,-0.00317330,-0.000999
 19,0.04091917,0.05386665,0.03112253,-0.00007762,-0.00044630,0.00031957
 ,-0.00095717,-0.00006547,-0.00026393,-0.03614142,-0.05143154,-0.030422
 35,-0.00422894,-0.00134764,-0.00097213,0.01291843,-0.05049070,-0.03806
 784,-0.00123145,0.00126589,0.00095770,-0.00036936,-0.00011317,-0.00007
 768,-0.00357881,0.00137028,0.00104947,-0.00350770,0.00640293,-0.002768
 74,-0.00313775,-0.05563998,0.06118145,0.05311715,0.00126581,-0.0002719
 5,-0.00004685,0.00010511,0.00006073,-0.00044630,-0.00145667,0.00096107
 ,0.00125128,0.04931625,-0.05916476,0.00484746,-0.00308251,-0.00099972,
 -0.04193422,0.05308044,0.03112258,0.00095764,-0.00004685,-0.00026358,0
 .00008622,-0.00044475,0.00031956,-0.00107317,0.00123113,0.00024049,0.0
 3711112,-0.05073626,-0.03042222,0.03703285,0.00133914,-0.10404886,0.00
 061190,-0.06448028,-0.06660611,-0.09221476,-0.00119871,-0.00005305,0.0
 3703078,-0.00119871,0.03402549,0.00557337,0.00133912,-0.10404887,-0.00
 005305,0.00557337,0.03079940,0.00061190,-0.06448028,-0.06660612,0.0321
 5784,-0.04981611,-0.03766957,-0.00372079,-0.00178431,-0.00130776,-0.02
 122851,-0.03919362,0.03811690,0.03263872,0.00130598,-0.00395170,-0.003
 55408,0.04346138,-0.03309519,-0.02969358,0.03271444,0.01979601,0.00101
 261,-0.00353205,-0.00189003,0.03280269,-0.02705807,-0.01802220,0.03047
 100,0.04967093,0.03704315,-0.00372952,0.00178945,0.00137569,-0.0034183
 8,-0.00472172,-0.00351453,-0.01958349,0.03904861,0.03980412,0.03334773
 ,-0.00130150,-0.00394166,-0.00352798,0.00470275,-0.00242967,-0.0025365
 6,-0.04320495,-0.03474092,0.02906730,0.03327201,0.01979602,-0.00094517
 ,-0.00355001,-0.00188954,0.00356191,-0.00246938,-0.00097565,-0.0322832
 0,-0.02767587,-0.01802236,-0.00372967,0.00178945,0.00137569,0.03047186
 ,0.04967094,0.03704315,-0.00399989,-0.00220024,-0.00161835,0.00026180,
 -0.00133429,-0.00100342,-0.01958383,-0.00130197,-0.00394167,-0.0035279
 8,0.03904989,0.03980414,0.03334773,0.00209564,0.00152463,0.00058136,-0
 .00133419,-0.00021859,-0.00018743,-0.04320544,-0.03474160,-0.00094553,
 -0.00355001,-0.00188954,0.02906825,0.03327202,0.01979603,0.00160724,0.
 00061198,0.00117853,-0.00100334,-0.00018743,-0.00008988,-0.03228356,-0
 .02767637,-0.01802274,-0.00372096,-0.00178431,-0.00130776,0.03215873,-
 0.04981610,-0.03766957,0.00021191,0.00134166,0.00100620,-0.00399989,0.
 00209554,0.00160717,-0.00341874,0.00470225,0.00356153,-0.02122888,0.00
 130645,-0.00395169,-0.00355408,-0.03919488,0.03811689,0.03263872,0.001
 34157,-0.00016718,-0.00016791,-0.00220034,0.00152463,0.00061198,-0.004
 72123,-0.00242900,-0.00246888,0.04346188,-0.03309584,0.00101297,-0.003
 53205,-0.00189003,-0.02969453,0.03271443,0.01979601,0.00100613,-0.0001
 6791,-0.00008954,-0.00161842,0.00058136,0.00117853,-0.00351417,-0.0025
 3605,-0.00097527,0.03280307,-0.02705856,-0.01802258,-0.09914366,0.0005
 7037,-0.15924545,0.00122151,-0.12869225,-0.08449580,0.01604391,-0.0000
 6866,-0.00015922,-0.09914574,-0.00006866,0.02324089,0.01674635,0.00057
 035,-0.15924545,-0.00015922,0.01674635,0.01351388,0.00122151,-0.128692
 25,-0.08449579,0.04443373,-0.08229135,-0.06216518,-0.00144079,-0.00244
 597,-0.00181362,-0.03939307,-0.07311809,0.07044611,0.05966117,0.005114
 99,-0.00388732,-0.00429192,0.07498289,-0.06043752,-0.05527735,0.059726
 56,0.03692318,0.00386359,-0.00423803,-0.00142956,0.05662537,-0.0504478
 0,-0.03224531,0.04149402,0.08174169,0.06102140,-0.00139058,0.00249431,
 0.00189547,-0.00404782,-0.00823215,-0.00614307,-0.03655496,0.07256861,
 0.07338626,0.06083021,-0.00506732,-0.00393621,-0.00425607,0.00826900,-
 0.00599938,-0.00553896,-0.07452960,-0.06327641,0.05413371,0.06076482,0
 .03692309,-0.00378224,-0.00430997,-0.00142905,0.00624696,-0.00542134,-
 0.00281623,-0.05565759,-0.05151353,-0.03224538,-0.00139074,0.00249431,
 0.00189547,0.04149488,0.08174170,0.06102140,-0.00010658,-0.00012139,-0
 .00009116,0.00060746,-0.00135368,-0.00102571,-0.03655531,-0.00506779,-
 0.00393621,-0.00425607,0.07256988,0.07338628,0.06083021,0.00011924,0.0
 0002107,0.00009584,-0.00135358,-0.00019742,0.00038377,-0.07453009,-0.0
 6327709,-0.00378259,-0.00430997,-0.00142905,0.05413466,0.06076483,0.03
 692309,0.00008953,0.00009755,-0.00003509,-0.00102564,0.00038377,-0.000
 40021,-0.05565796,-0.05151403,-0.03224576,-0.00144096,-0.00244597,-0.0
 0181362,0.04443462,-0.08229135,-0.06216518,0.00055671,0.00136720,0.001
 01765,-0.00010658,0.00011915,0.00008946,-0.00404818,0.00826850,0.00624
 659,-0.03939343,0.00511546,-0.00388731,-0.00429192,-0.07311934,0.07044
 610,0.05966117,0.00136710,-0.00014515,0.00040361,-0.00012149,0.0000210
 6,0.00009755,-0.00823167,-0.00599871,-0.00542085,0.07498339,-0.0604381
 8,0.00386395,-0.00423803,-0.00142955,-0.05527830,0.05972655,0.03692317
 ,0.00101757,0.00040361,-0.00039986,-0.00009123,0.00009584,-0.00003509,
 -0.00614270,-0.00553846,-0.00281585,0.05662575,-0.05044830,-0.03224568
 ,0.48031997,0.00640915,-0.19485349,0.00072028,-0.07594704,-0.15079803,
 -0.50111633,-0.00586409,-0.00013416,0.48031790,-0.00586409,0.11659088,
 0.01416403,0.00640913,-0.19485349,-0.00013416,0.01416403,0.10841891,0.
 00072028,-0.07594704,-0.15079803,0.01826972,-0.03440344,-0.02599261,-0
 .00725975,-0.00188226,-0.00134558,-0.01061847,-0.02867936,0.03874430,0
 .03248404,-0.00024236,-0.00022514,-0.00185075,0.03200632,-0.03453850,-
 0.02169464,0.03252484,0.02033023,-0.00011425,-0.00183906,0.00086194,0.
 02412475,-0.02793554,-0.01878515,0.01708013,0.03399210,0.02537125,-0.0
 0729710,0.00174892,0.00138119,-0.00264581,-0.00371363,-0.00276813,-0.0
 0941256,0.02826820,0.03993422,0.03297143,0.00010836,-0.00018648,-0.001
 82424,0.00373348,-0.00370148,-0.00295592,-0.03152938,-0.03574509,0.021
 07341,0.03293063,0.02033027,0.00014936,-0.00183593,0.00086244,0.002823
 60,-0.00290284,-0.00199995,-0.02359018,-0.02838847,-0.01878534,-0.0072
 9726,0.00174892,0.00138119,0.01708099,0.03399211,0.02537125,0.00058747
 ,0.00004203,0.00002004,0.00168940,-0.00054085,-0.00041483,-0.00941291,
 0.00010789,-0.00018648,-0.00182423,0.02826948,0.03993424,0.03297143,-0
 .00003355,0.00015582,0.00088914,-0.00054076,-0.00045909,-0.00069069,-0
 .03152987,-0.03574576,0.00014901,-0.00183593,0.00086244,0.02107436,0.0
 3293064,0.02033027,-0.00003671,0.00088861,-0.00036055,-0.00041475,-0.0
 0069069,-0.00004974,-0.02359054,-0.02838898,-0.01878571,-0.00725992,-0
 .00188226,-0.00134558,0.01827061,-0.03440343,-0.02599261,0.00166902,0.
 00058046,0.00042727,0.00058747,-0.00003365,-0.00003678,-0.00264616,0.0
 0373297,0.00282322,-0.01061884,-0.00024189,-0.00022514,-0.00185075,-0.
 02868062,0.03874429,0.03248404,0.00058036,-0.00043719,-0.00068225,0.00
 004193,0.00015582,0.00088861,-0.00371315,-0.00370081,-0.00290234,0.032
 00682,-0.03453916,-0.00011389,-0.00183905,0.00086194,-0.02169559,0.032
 52483,0.02033022,0.00042719,-0.00068225,-0.00004939,0.00001997,0.00088
 914,-0.00036055,-0.00276776,-0.00295542,-0.00199957,0.02412512,-0.0279
 3604,-0.01878552,0.21175902,-0.00341018,0.57106639,-0.00651524,0.68639
 809,0.17238217,0.02788116,0.00041430,0.00006049,0.21175773,0.00041430,
 -0.01580364,-0.00640695,-0.00341019,0.57106639,0.00006049,-0.00640695,
 -0.01208588,-0.00651524,0.68639809,0.17238217,-0.12535432,0.35179162,0
 .26627900,-0.00102965,0.00252162,0.00190958,0.11544555,0.34422277,-0.2
 7468452,-0.33929469,-0.00425970,0.00361702,0.00181233,-0.34627361,0.26
 890279,0.26059586,-0.33934864,-0.08273700,-0.00318223,0.00176399,0.002
 59098,-0.26211677,0.34040827,0.07629814,-0.11219941,-0.34870752,-0.259
 79056,-0.00106051,-0.00260945,-0.00194290,0.00817218,0.00674327,0.0050
 4822,0.10235783,-0.34113847,-0.28784022,-0.34428771,0.00417118,0.00364
 925,0.00177641,-0.00663925,0.00268288,-0.00249183,0.34311228,0.2819909
 2,-0.25410727,-0.34423376,-0.08273600,0.00314839,0.00182474,0.00259149
 ,-0.00500016,-0.00258722,0.00415755,0.25560783,0.34532187,0.07629698,-
 0.00106050,-0.00260945,-0.00194290,-0.11219877,-0.34870752,-0.25979056
 ,0.00195195,0.00050779,0.00036110,0.00077949,0.00095282,0.00071566,0.1
 0235751,0.00417100,0.00364924,0.00177641,-0.34113752,-0.28784021,-0.34
 428771,-0.00045232,-0.00095520,-0.00005479,0.00095291,0.00047028,-0.00
 026270,0.34311182,0.28199028,0.00314825,0.00182474,0.00259149,-0.25410
 657,-0.34423375,-0.08273600,-0.00035980,-0.00006163,-0.00092165,0.0007
 1573,-0.00026270,0.00060875,0.25560749,0.34532139,0.07629662,-0.001029
 64,0.00252162,0.00190958,-0.12535366,0.35179163,0.26627900,0.00081647,
 -0.00094706,-0.00071115,0.00195195,-0.00045241,-0.00035987,0.00817185,
 -0.00663972,-0.00500051,0.11544521,-0.00425951,0.00361702,0.00181233,0
 .34422183,-0.27468453,-0.33929469,-0.00094714,0.00043483,-0.00027579,0
 .00050770,-0.00095520,-0.00006163,0.00674372,0.00268352,-0.00258674,-0
 .34627315,0.26890217,-0.00318209,0.00176399,0.00259098,0.26059516,-0.3
 3934864,-0.08273700,-0.00071121,-0.00027579,0.00060911,0.00036104,-0.0
 0005479,-0.00092165,0.00504856,-0.00249135,0.00415791,-0.26211642,0.34
 040779,0.07629779,0.24047486,-0.00309063,0.56612689,-0.00651328,0.6861
 9385,0.16755827,-0.01986295,-0.00014972,0.00002479,0.24047278,-0.00014
 973,-0.00412938,-0.00263909,-0.00309065,0.56612689,0.00002479,-0.00263
 909,-0.00259496,-0.00651328,0.68619385,0.16755827,-0.11397756,0.347791
 06,0.26318220,-0.00280297,0.00181529,0.00139663,0.10722762,0.33915712,
 -0.27936714,-0.34152553,-0.00363204,0.00484317,0.00222698,-0.34127346,
 0.27358182,0.25669933,-0.34158708,-0.08605345,-0.00269354,0.00218815,0
 .00357393,-0.25829127,0.34256692,0.07964837,-0.10100050,-0.34440552,-0
 .25665205,-0.00283426,-0.00196009,-0.00143792,0.00775055,0.00613965,0.
 00459412,0.09433434,-0.33577138,-0.29234505,-0.34645946,0.00348656,0.0
 0487580,0.00220073,-0.00603438,0.00219595,-0.00245473,0.33787104,0.286
 47556,-0.25016903,-0.34639791,-0.08605248,0.00265174,0.00223955,0.0035
 7444,-0.00454685,-0.00254151,0.00364657,0.25174211,0.34740760,0.079647
 23,-0.00283442,-0.00196009,-0.00143792,-0.10099963,-0.34440551,-0.2566
 5205,0.00104611,0.00097857,0.00069842,0.00070528,0.00137554,0.00105466
 ,0.09433400,0.00348608,0.00487580,0.00220073,-0.33577011,-0.29234504,-
 0.34645946,-0.00092111,-0.00196587,0.00157438,0.00137563,0.00076152,-0
 .00226726,0.33787055,0.28647489,0.00265139,0.00223955,0.00357444,-0.25
 016808,-0.34639790,-0.08605248,-0.00072797,0.00156083,-0.00287674,0.00
 105474,-0.00226726,0.00205811,0.25174175,0.34740710,0.07964686,-0.0028
 0314,0.00181529,0.00139663,-0.11397667,0.34779107,0.26318220,0.0007584
 3,-0.00137640,-0.00101203,0.00104611,-0.00092120,-0.00072805,0.0077501
 9,-0.00603488,-0.00454722,0.10722725,-0.00363157,0.00484318,0.00222698
 ,0.33915586,-0.27936715,-0.34152553,-0.00137649,0.00070988,-0.00228642
 ,0.00097848,-0.00196588,0.00156083,0.00614013,0.00219662,-0.00254101,-
 0.34127296,0.27358116,-0.00269318,0.00218816,0.00357393,0.25669838,-0.
 34158708,-0.08605345,-0.00101210,-0.00228642,0.00205846,0.00069834,0.0
 0157437,-0.00287674,0.00459449,-0.00245423,0.00364694,-0.25829089,0.34
 256642,0.07964799,0.25519955,-0.00283446,0.55383583,-0.00666318,0.7019
 5853,0.14610736,0.05116917,0.00074971,0.00009748,0.25519758,0.00074971
 ,-0.02784735,-0.01030503,-0.00283448,0.55383583,0.00009748,-0.01030503
 ,-0.02186845,-0.00666318,0.70195853,0.14610736,-0.15869428,0.39565403,
 0.29962350,-0.00197696,0.00037741,0.00029367,0.16097382,0.39748688,-0.
 25994305,-0.34676478,-0.00290268,0.00443579,0.00375173,-0.39387364,0.2
 5541049,0.30099972,-0.34675171,-0.06439911,-0.00216921,0.00372835,0.00
 228169,-0.29830661,0.34372288,0.06159005,-0.14367875,-0.39344724,-0.29
 298699,-0.00202214,-0.00049906,-0.00036411,-0.00243021,0.00049364,0.00
 037773,0.14605811,-0.39527990,-0.27495924,-0.35238909,0.00278035,0.004
 48231,0.00374612,-0.00054374,0.00019841,0.00123262,0.39179792,0.270326
 50,-0.29436306,-0.35240216,-0.06439793,0.00209827,0.00376950,0.0022822
 0,-0.00040120,0.00122522,-0.00051521,0.29172795,0.34932255,0.06158873,
 -0.00202228,-0.00049906,-0.00036411,-0.14367792,-0.39344723,-0.2929869
 9,0.00132880,0.00022142,0.00015130,0.00074572,0.00143249,0.00109346,0.
 14605777,0.00277991,0.00448230,0.00374613,-0.39527867,-0.27495923,-0.3
 5238909,-0.00018088,-0.00079188,-0.00001618,0.00143259,0.00074182,-0.0
 0189477,0.39179744,0.27032584,0.00209794,0.00376950,0.00228220,-0.2943
 6215,-0.35240215,-0.06439793,-0.00015077,-0.00001904,-0.00078185,0.001
 09353,-0.00189477,0.00182120,0.29172760,0.34932206,0.06158836,-0.00197
 711,0.00037741,0.00029367,-0.15869342,0.39565403,0.29962350,0.00080101
 ,-0.00143217,-0.00105789,0.00132880,-0.00018097,-0.00015084,-0.0024305
 5,-0.00054423,-0.00040156,0.16097346,-0.00290224,0.00443580,0.00375173
 ,0.39748567,-0.25994306,-0.34676478,-0.00143227,0.00068805,-0.00191474
 ,0.00022133,-0.00079188,-0.00001904,0.00049411,0.00019906,0.00122571,-
 0.39387315,0.25540985,-0.00216888,0.00372835,0.00228169,0.30099880,-0.
 34675172,-0.06439911,-0.00105796,-0.00191474,0.00182155,0.00015123,-0.
 00001618,-0.00078184,0.00037808,0.00123311,-0.00051485,-0.29830624,0.3
 4372239,0.06158968,0.27391566,-0.00255579,0.54320604,-0.00660888,0.696
 24382,0.13879449,0.03194200,0.00053451,0.00003215,0.27391459,0.0005345
 1,-0.02440609,-0.00342292,-0.00255580,0.54320607,0.00003216,-0.0034229
 2,-0.02242285,-0.00660888,0.69624384,0.13879451,-0.15818364,0.39557943
 ,0.29956282,-0.00222209,-0.00015177,-0.00006973,0.16181996,0.39762184,
 -0.25875503,-0.34576518,-0.00356724,0.00683191,0.00216439,-0.39354151,
 0.25423430,0.30109638,-0.34575062,-0.06379265,-0.00263426,0.00214004,0
 .00560887,-0.29806707,0.34323896,0.06069013,-0.14316676,-0.39338557,-0
 .29294537,-0.00228896,-0.00002043,0.00002937,-0.00304382,-0.00006689,-
 0.00003564,0.14691617,-0.39542779,-0.27377270,-0.35138862,0.00339436,0
 .00690015,0.00216598,0.00001036,-0.00007639,0.00069212,0.39150451,0.26
 913850,-0.29447878,-0.35140317,-0.06379151,0.00259339,0.00219032,0.005
 60939,0.00002236,0.00069267,-0.00047832,0.29149771,0.34883427,0.060688
 82,-0.00228891,-0.00002043,0.00002937,-0.14316619,-0.39338557,-0.29294
 537,-0.00045616,0.00073731,0.00053946,0.00204107,0.00123025,0.00091382
 ,0.14691586,0.00339423,0.00690015,0.00216598,-0.39542692,-0.27377270,-
 0.35138862,-0.00070544,-0.00212059,0.00024688,0.00123033,-0.00007105,-
 0.00054938,0.39150407,0.26913788,0.00259329,0.00219032,0.00560939,-0.2
 9447814,-0.35140317,-0.06379151,-0.00054385,0.00023660,-0.00226117,0.0
 0091388,-0.00054938,0.00022991,0.29149738,0.34883380,0.06068848,-0.002
 22204,-0.00015177,-0.00006973,-0.15818305,0.39557944,0.29956282,0.0020
 8793,-0.00119007,-0.00090383,-0.00045616,-0.00070553,-0.00054391,-0.00
 304414,0.00000990,0.00002202,0.16181964,-0.00356710,0.00683192,0.00216
 439,0.39762099,-0.25875505,-0.34576519,-0.00119015,-0.00011639,-0.0005
 6617,0.00073723,-0.00212059,0.00023660,-0.00006645,-0.00007577,0.00069
 313,-0.39354106,0.25423369,-0.00263416,0.00214005,0.00560888,0.3010957
 4,-0.34575063,-0.06379266,-0.00090389,-0.00056618,0.00023027,0.0005393
 9,0.00024688,-0.00226117,-0.00003531,0.00069259,-0.00047797,-0.2980667
 3,0.34323850,0.06068978\\@
 The archive entry for this job was punched.


 WE HAVE LEFT UNDONE THOSE THINGS WHICH WE OUGHT TO HAVE DONE,
 AND WE HAVE DONE THOSE THINGS WHICH WE OUGHT NOT TO HAVE DONE.
                   BOOK OF COMMON PRAYER                      
 Job cpu time:       0 days  1 hours 17 minutes 20.3 seconds.
 Elapsed time:       0 days  0 hours 19 minutes 24.6 seconds.
 File lengths (MBytes):  RWF=     47 Int=      0 D2E=      0 Chk=     76 Scr=      1
 Normal termination of Gaussian 16 at Tue Jun 23 13:41:13 2020.
