 Entering Gaussian System, Link 0=g16
 Input=fluoroethane.gjf
 Output=fluoroethane.log
 Initial command:
 /apps/gaussian/g16c01/g16/l1.exe "/jobfs/7627943.gadi-pbs/Gau-59687.inp" -scrdir="/jobfs/7627943.gadi-pbs/"
 Entering Link 1 = /apps/gaussian/g16c01/g16/l1.exe PID=     59688.
  
 Copyright (c) 1988-2019, Gaussian, Inc.  All Rights Reserved.
  
 This is part of the Gaussian(R) 16 program.  It is based on
 the Gaussian(R) 09 system (copyright 2009, Gaussian, Inc.),
 the Gaussian(R) 03 system (copyright 2003, Gaussian, Inc.),
 the Gaussian(R) 98 system (copyright 1998, Gaussian, Inc.),
 the Gaussian(R) 94 system (copyright 1995, Gaussian, Inc.),
 the Gaussian 92(TM) system (copyright 1992, Gaussian, Inc.),
 the Gaussian 90(TM) system (copyright 1990, Gaussian, Inc.),
 the Gaussian 88(TM) system (copyright 1988, Gaussian, Inc.),
 the Gaussian 86(TM) system (copyright 1986, Carnegie Mellon
 University), and the Gaussian 82(TM) system (copyright 1983,
 Carnegie Mellon University). Gaussian is a federally registered
 trademark of Gaussian, Inc.
  
 This software contains proprietary and confidential information,
 including trade secrets, belonging to Gaussian, Inc.
  
 This software is provided under written license and may be
 used, copied, transmitted, or stored only in accord with that
 written license.
  
 The following legend is applicable only to US Government
 contracts under FAR:
  
                    RESTRICTED RIGHTS LEGEND
  
 Use, reproduction and disclosure by the US Government is
 subject to restrictions as set forth in subparagraphs (a)
 and (c) of the Commercial Computer Software - Restricted
 Rights clause in FAR 52.227-19.
  
 Gaussian, Inc.
 340 Quinnipiac St., Bldg. 40, Wallingford CT 06492
  
  
 ---------------------------------------------------------------
 Warning -- This program may not be used in any manner that
 competes with the business of Gaussian, Inc. or will provide
 assistance to any competitor of Gaussian, Inc.  The licensee
 of this program is prohibited from giving any competitor of
 Gaussian, Inc. access to this program.  By using this program,
 the user acknowledges that Gaussian, Inc. is engaged in the
 business of creating and licensing software in the field of
 computational chemistry and represents and warrants to the
 licensee that it is not a competitor of Gaussian, Inc. and that
 it will not use this program in any manner prohibited above.
 ---------------------------------------------------------------
  

 Cite this work as:
 Gaussian 16, Revision C.01,
 M. J. Frisch, G. W. Trucks, H. B. Schlegel, G. E. Scuseria, 
 M. A. Robb, J. R. Cheeseman, G. Scalmani, V. Barone, 
 G. A. Petersson, H. Nakatsuji, X. Li, M. Caricato, A. V. Marenich, 
 J. Bloino, B. G. Janesko, R. Gomperts, B. Mennucci, H. P. Hratchian, 
 J. V. Ortiz, A. F. Izmaylov, J. L. Sonnenberg, D. Williams-Young, 
 F. Ding, F. Lipparini, F. Egidi, J. Goings, B. Peng, A. Petrone, 
 T. Henderson, D. Ranasinghe, V. G. Zakrzewski, J. Gao, N. Rega, 
 G. Zheng, W. Liang, M. Hada, M. Ehara, K. Toyota, R. Fukuda, 
 J. Hasegawa, M. Ishida, T. Nakajima, Y. Honda, O. Kitao, H. Nakai, 
 T. Vreven, K. Throssell, J. A. Montgomery, Jr., J. E. Peralta, 
 F. Ogliaro, M. J. Bearpark, J. J. Heyd, E. N. Brothers, K. N. Kudin, 
 V. N. Staroverov, T. A. Keith, R. Kobayashi, J. Normand, 
 K. Raghavachari, A. P. Rendell, J. C. Burant, S. S. Iyengar, 
 J. Tomasi, M. Cossi, J. M. Millam, M. Klene, C. Adamo, R. Cammi, 
 J. W. Ochterski, R. L. Martin, K. Morokuma, O. Farkas, 
 J. B. Foresman, and D. J. Fox, Gaussian, Inc., Wallingford CT, 2019.
 
 ******************************************
 Gaussian 16:  ES64L-G16RevC.01  3-Jul-2019
                23-Jun-2020 
 ******************************************
 %NprocShared=4
 Will use up to    4 processors via shared memory.
 %chk=checkpoint.chk
 -------------------------------------------------------
 # M06/Def2TZVP Freq=(anharmonic,ReadAnharm) Opt=CalcAll
 -------------------------------------------------------
 1/10=4,18=20,19=15,26=3,38=1,80=1/1,3;
 2/9=110,12=2,17=6,18=5,40=1/2;
 3/5=44,7=101,11=2,25=1,30=1,71=2,74=-54,140=1/1,2,3;
 4//1;
 5/5=2,38=5/2;
 8/6=4,10=90,11=11/1;
 11/6=1,8=1,9=11,15=111,16=1/1,2,10;
 10/6=1/2;
 6/7=2,8=2,9=2,10=2,18=1,28=1/1;
 7/10=1,25=1/1,2,3,16;
 1/10=4,18=20,19=15,26=3,80=1/3(3);
 2/9=110/2;
 7/8=1,9=1,25=1,44=-1,71=2,72=1/16;
 99//99;
 2/9=110/2;
 3/5=44,7=101,11=2,25=1,30=1,71=2,74=-54,140=1/1,2,3;
 4/5=5,16=3,69=1/1;
 5/5=2,38=5/2;
 8/6=4,10=90,11=11/1;
 11/6=1,8=1,9=11,15=111,16=1/1,2,10;
 10/6=1/2;
 7/10=1,25=1/1,2,3,16;
 1/10=4,18=20,19=15,26=3,80=1/3(-8);
 2/9=110/2;
 6/7=2,8=2,9=2,10=2,18=1,19=2,28=1/1;
 7/8=1,9=1,25=1,44=-1,71=1,72=1/16;
 99//99;
 --------------------------------------------------
 Anharmonic frequencies for fluoroethane using VPT2
 --------------------------------------------------
 Symbolic Z-matrix:
 Charge =  0 Multiplicity = 1
 C                    -0.62537   0.99175   0.00029 
 C                     0.884     0.94396   0.00067 
 H                    -0.98946   1.53944   0.87496 
 H                    -1.04924  -0.0161    0.01212 
 H                    -0.98967   1.51884  -0.88687 
 H                     1.26465   0.44783   0.8975 
 F                     1.36227   2.21604  -0.01426 
 H                     1.26444   0.42699  -0.8844 
 

 GradGradGradGradGradGradGradGradGradGradGradGradGradGradGradGradGradGrad
 Berny optimization.
 Initialization pass.
                           ----------------------------
                           !    Initial Parameters    !
                           ! (Angstroms and Degrees)  !
 --------------------------                            --------------------------
 ! Name  Definition              Value          Derivative Info.                !
 --------------------------------------------------------------------------------
 ! R1    R(1,2)                  1.5101         calculate D2E/DX2 analytically  !
 ! R2    R(1,3)                  1.0943         calculate D2E/DX2 analytically  !
 ! R3    R(1,4)                  1.0934         calculate D2E/DX2 analytically  !
 ! R4    R(1,5)                  1.0943         calculate D2E/DX2 analytically  !
 ! R5    R(2,6)                  1.0933         calculate D2E/DX2 analytically  !
 ! R6    R(2,7)                  1.3591         calculate D2E/DX2 analytically  !
 ! R7    R(2,8)                  1.0933         calculate D2E/DX2 analytically  !
 ! A1    A(2,1,3)              110.3757         calculate D2E/DX2 analytically  !
 ! A2    A(2,1,4)              110.9951         calculate D2E/DX2 analytically  !
 ! A3    A(2,1,5)              110.3756         calculate D2E/DX2 analytically  !
 ! A4    A(3,1,4)              108.8861         calculate D2E/DX2 analytically  !
 ! A5    A(3,1,5)              107.2259         calculate D2E/DX2 analytically  !
 ! A6    A(4,1,5)              108.8855         calculate D2E/DX2 analytically  !
 ! A7    A(1,2,6)              111.2571         calculate D2E/DX2 analytically  !
 ! A8    A(1,2,7)              108.7901         calculate D2E/DX2 analytically  !
 ! A9    A(1,2,8)              111.2572         calculate D2E/DX2 analytically  !
 ! A10   A(6,2,7)              108.1329         calculate D2E/DX2 analytically  !
 ! A11   A(6,2,8)              109.167          calculate D2E/DX2 analytically  !
 ! A12   A(7,2,8)              108.1332         calculate D2E/DX2 analytically  !
 ! D1    D(3,1,2,6)             59.8415         calculate D2E/DX2 analytically  !
 ! D2    D(3,1,2,7)            -59.1776         calculate D2E/DX2 analytically  !
 ! D3    D(3,1,2,8)           -178.197          calculate D2E/DX2 analytically  !
 ! D4    D(4,1,2,6)            -60.9812         calculate D2E/DX2 analytically  !
 ! D5    D(4,1,2,7)            179.9998         calculate D2E/DX2 analytically  !
 ! D6    D(4,1,2,8)             60.9803         calculate D2E/DX2 analytically  !
 ! D7    D(5,1,2,6)            178.1969         calculate D2E/DX2 analytically  !
 ! D8    D(5,1,2,7)             59.1779         calculate D2E/DX2 analytically  !
 ! D9    D(5,1,2,8)            -59.8416         calculate D2E/DX2 analytically  !
 --------------------------------------------------------------------------------
 Trust Radius=3.00D-01 FncErr=1.00D-07 GrdErr=1.00D-06 EigMax=2.50D+02 EigMin=1.00D-04
 Number of steps in this run=     38 maximum allowed number of steps=    100.
 GradGradGradGradGradGradGradGradGradGradGradGradGradGradGradGradGradGrad

                          Input orientation:                          
 ---------------------------------------------------------------------
 Center     Atomic      Atomic             Coordinates (Angstroms)
 Number     Number       Type             X           Y           Z
 ---------------------------------------------------------------------
      1          6           0       -0.625370    0.991750    0.000290
      2          6           0        0.884000    0.943960    0.000670
      3          1           0       -0.989460    1.539440    0.874960
      4          1           0       -1.049240   -0.016100    0.012120
      5          1           0       -0.989670    1.518840   -0.886870
      6          1           0        1.264650    0.447830    0.897500
      7          9           0        1.362270    2.216040   -0.014260
      8          1           0        1.264440    0.426990   -0.884400
 ---------------------------------------------------------------------
                    Distance matrix (angstroms):
                    1          2          3          4          5
     1  C    0.000000
     2  C    1.510126   0.000000
     3  H    1.094337   2.151472   0.000000
     4  H    1.093420   2.158533   1.779823   0.000000
     5  H    1.094345   2.151477   1.761950   1.779824   0.000000
     6  H    2.161715   1.093318   2.504622   2.520559   3.068061
     7  F    2.334483   1.359100   2.603677   3.286111   2.603682
     8  H    2.161715   1.093317   3.068054   2.520554   2.504627
                    6          7          8
     6  H    0.000000
     7  F    1.991834   0.000000
     8  H    1.782022   1.991837   0.000000
 Stoichiometry    C2H5F
 Framework group  C1[X(C2H5F)]
 Deg. of freedom    18
 Full point group                 C1      NOp   1
 Largest Abelian subgroup         C1      NOp   1
 Largest concise Abelian subgroup C1      NOp   1
                         Standard orientation:                         
 ---------------------------------------------------------------------
 Center     Atomic      Atomic             Coordinates (Angstroms)
 Number     Number       Type             X           Y           Z
 ---------------------------------------------------------------------
      1          6           0       -1.178230   -0.210689   -0.000002
      2          6           0        0.128315    0.546558    0.000001
      3          1           0       -1.244307   -0.856519   -0.880973
      4          1           0       -2.029067    0.476074    0.000003
      5          1           0       -1.244310   -0.856523    0.880977
      6          1           0        0.223407    1.172975   -0.891012
      7          9           0        1.152262   -0.347133    0.000000
      8          1           0        0.223404    1.172978    0.891010
 ---------------------------------------------------------------------
 Rotational constants (GHZ):          36.3279090           9.6905042           8.4604406
 Standard basis: def2TZVP (5D, 7F)
 There are   138 symmetry adapted cartesian basis functions of A   symmetry.
 There are   123 symmetry adapted basis functions of A   symmetry.
   123 basis functions,   193 primitive gaussians,   138 cartesian basis functions
    13 alpha electrons       13 beta electrons
       nuclear repulsion energy        80.0248305455 Hartrees.
 NAtoms=    8 NActive=    8 NUniq=    8 SFac= 1.00D+00 NAtFMM=   60 NAOKFM=F Big=F
 Integral buffers will be    131072 words long.
 Raffenetti 2 integral format.
 Two-electron integral symmetry is turned on.
 One-electron integrals computed using PRISM.
   1 Symmetry operations used in ECPInt.
 ECPInt:  NShTT=    1431 NPrTT=    4176 LenC2=    1428 LenP2D=    3708.
 LDataN:  DoStor=T MaxTD1= 6 Len=  172
 NBasis=   123 RedAO= T EigKep=  5.57D-04  NBF=   123
 NBsUse=   123 1.00D-06 EigRej= -1.00D+00 NBFU=   123
 ExpMin= 9.52D-02 ExpMax= 3.55D+04 ExpMxC= 1.21D+03 IAcc=3 IRadAn=         5 AccDes= 0.00D+00
 Harris functional with IExCor= 1009 and IRadAn=       5 diagonalized for initial guess.
 HarFok:  IExCor= 1009 AccDes= 0.00D+00 IRadAn=         5 IDoV= 1 UseB2=F ITyADJ=14
 ICtDFT=  3500011 ScaDFX=  1.000000  1.000000  1.000000  1.000000
 FoFCou: FMM=F IPFlag=           0 FMFlag=      100000 FMFlg1=           0
         NFxFlg=           0 DoJE=T BraDBF=F KetDBF=T FulRan=T
         wScrn=  0.000000 ICntrl=       500 IOpCl=  0 I1Cent=   200000004 NGrid=           0
         NMat0=    1 NMatS0=      1 NMatT0=    0 NMatD0=    1 NMtDS0=    0 NMtDT0=    0
 Petite list used in FoFCou.
 Keep R1 ints in memory in canonical form, NReq=32942117.
 Requested convergence on RMS density matrix=1.00D-08 within 128 cycles.
 Requested convergence on MAX density matrix=1.00D-06.
 Requested convergence on             energy=1.00D-06.
 No special actions if energy rises.
 Integral accuracy reduced to 1.0D-05 until final iterations.
 Initial convergence to 1.0D-05 achieved.  Increase integral accuracy.
 SCF Done:  E(RM06) =  -179.033992077     A.U. after   12 cycles
            NFock= 12  Conv=0.61D-08     -V/T= 2.0038
 DoSCS=F DFT=T ScalE2(SS,OS)=  1.000000  1.000000
 Range of M.O.s used for correlation:     1   123
 NBasis=   123 NAE=    13 NBE=    13 NFC=     0 NFV=     0
 NROrb=    123 NOA=    13 NOB=    13 NVA=   110 NVB=   110

 **** Warning!!: The largest alpha MO coefficient is  0.17404613D+02

   1 Symmetry operations used in ECPInt.
 ECPInt:  NShTT=    1431 NPrTT=    4176 LenC2=    1428 LenP2D=    3708.
 LDataN:  DoStor=T MaxTD1= 7 Len=  274
 Symmetrizing basis deriv contribution to polar:
 IMax=3 JMax=2 DiffMx= 0.00D+00
 G2DrvN: will do     9 centers at a time, making    1 passes.
 Calling FoFCou, ICntrl=  3107 FMM=F I1Cent=   0 AccDes= 0.00D+00.
 End of G2Drv F.D. properties file   721 does not exist.
 End of G2Drv F.D. properties file   722 does not exist.
 End of G2Drv F.D. properties file   788 does not exist.
          IDoAtm=11111111
          Differentiating once with respect to electric field.
                with respect to dipole field.
          Differentiating once with respect to nuclear coordinates.
 Keep R1 ints in memory in canonical form, NReq=32935850.
          There are    27 degrees of freedom in the 1st order CPHF.  IDoFFX=6 NUNeed=     3.
     24 vectors produced by pass  0 Test12= 5.30D-15 3.70D-09 XBig12= 1.42D+01 1.62D+00.
 AX will form    24 AO Fock derivatives at one time.
     24 vectors produced by pass  1 Test12= 5.30D-15 3.70D-09 XBig12= 8.76D-01 2.23D-01.
     24 vectors produced by pass  2 Test12= 5.30D-15 3.70D-09 XBig12= 8.98D-03 2.15D-02.
     24 vectors produced by pass  3 Test12= 5.30D-15 3.70D-09 XBig12= 7.70D-05 2.09D-03.
     24 vectors produced by pass  4 Test12= 5.30D-15 3.70D-09 XBig12= 3.19D-07 1.17D-04.
     23 vectors produced by pass  5 Test12= 5.30D-15 3.70D-09 XBig12= 8.40D-10 5.38D-06.
      9 vectors produced by pass  6 Test12= 5.30D-15 3.70D-09 XBig12= 1.69D-12 2.69D-07.
      3 vectors produced by pass  7 Test12= 5.30D-15 3.70D-09 XBig12= 4.41D-15 1.09D-08.
 InvSVY:  IOpt=1 It=  1 EMax= 3.11D-15
 Solved reduced A of dimension   155 with    27 vectors.
 Isotropic polarizability for W=    0.000000       26.75 Bohr**3.
 End of Minotr F.D. properties file   721 does not exist.
 End of Minotr F.D. properties file   722 does not exist.
 End of Minotr F.D. properties file   788 does not exist.

 **********************************************************************

            Population analysis using the SCF Density.

 **********************************************************************

 Orbital symmetries:
       Occupied  (A) (A) (A) (A) (A) (A) (A) (A) (A) (A) (A) (A)
                 (A)
       Virtual   (A) (A) (A) (A) (A) (A) (A) (A) (A) (A) (A) (A)
                 (A) (A) (A) (A) (A) (A) (A) (A) (A) (A) (A) (A)
                 (A) (A) (A) (A) (A) (A) (A) (A) (A) (A) (A) (A)
                 (A) (A) (A) (A) (A) (A) (A) (A) (A) (A) (A) (A)
                 (A) (A) (A) (A) (A) (A) (A) (A) (A) (A) (A) (A)
                 (A) (A) (A) (A) (A) (A) (A) (A) (A) (A) (A) (A)
                 (A) (A) (A) (A) (A) (A) (A) (A) (A) (A) (A) (A)
                 (A) (A) (A) (A) (A) (A) (A) (A) (A) (A) (A) (A)
                 (A) (A) (A) (A) (A) (A) (A) (A) (A) (A) (A) (A)
                 (A) (A)
 The electronic state is 1-A.
 Alpha  occ. eigenvalues --  -24.75383 -10.31050 -10.23586  -1.23531  -0.77640
 Alpha  occ. eigenvalues --   -0.64416  -0.52102  -0.51507  -0.47520  -0.41061
 Alpha  occ. eigenvalues --   -0.40799  -0.35371  -0.34445
 Alpha virt. eigenvalues --    0.04029   0.07294   0.08885   0.10068   0.11003
 Alpha virt. eigenvalues --    0.12013   0.16850   0.19581   0.22833   0.25829
 Alpha virt. eigenvalues --    0.27548   0.31222   0.34788   0.36724   0.38674
 Alpha virt. eigenvalues --    0.39856   0.41794   0.45525   0.45580   0.53199
 Alpha virt. eigenvalues --    0.56059   0.63225   0.63788   0.74280   0.75996
 Alpha virt. eigenvalues --    0.79694   0.81305   0.89686   0.93142   0.98285
 Alpha virt. eigenvalues --    1.00927   1.04214   1.07870   1.13417   1.43275
 Alpha virt. eigenvalues --    1.44298   1.45441   1.50046   1.51401   1.51484
 Alpha virt. eigenvalues --    1.59638   1.66889   1.68381   1.77269   1.78771
 Alpha virt. eigenvalues --    1.80771   1.84540   1.94097   2.03463   2.03785
 Alpha virt. eigenvalues --    2.16970   2.23479   2.26396   2.27070   2.30905
 Alpha virt. eigenvalues --    2.34483   2.36643   2.45012   2.45084   2.51847
 Alpha virt. eigenvalues --    2.54583   2.59154   2.60298   2.74431   2.75964
 Alpha virt. eigenvalues --    2.76371   2.86740   2.96537   2.97356   3.01861
 Alpha virt. eigenvalues --    3.02243   3.09755   3.15228   3.17406   3.21370
 Alpha virt. eigenvalues --    3.24977   3.29353   3.36087   3.44504   3.45400
 Alpha virt. eigenvalues --    3.64072   3.68531   3.73556   3.74995   3.81884
 Alpha virt. eigenvalues --    3.87945   3.88561   3.95494   4.08444   4.14889
 Alpha virt. eigenvalues --    4.25036   4.25115   4.32696   4.69111   5.21190
 Alpha virt. eigenvalues --    6.92550   6.93050   7.02729   7.03090   7.29066
 Alpha virt. eigenvalues --    7.31428   7.35305   8.46340   8.47999   8.87215
 Alpha virt. eigenvalues --    8.91715   9.08478  22.23310  22.36960  57.09077
          Condensed to atoms (all electrons):
               1          2          3          4          5          6
     1  C    4.997278   0.257994   0.398678   0.372787   0.398677  -0.055312
     2  C    0.257994   4.662566  -0.034760  -0.026852  -0.034760   0.411893
     3  H    0.398678  -0.034760   0.601389  -0.024024  -0.036430  -0.012655
     4  H    0.372787  -0.026852  -0.024024   0.618444  -0.024025   0.000017
     5  H    0.398677  -0.034760  -0.036430  -0.024025   0.601391   0.010507
     6  H   -0.055312   0.411893  -0.012655   0.000017   0.010507   0.688174
     7  F   -0.056768   0.213457   0.002751   0.004621   0.002751  -0.043338
     8  H   -0.055312   0.411892   0.010507   0.000017  -0.012655  -0.062406
               7          8
     1  C   -0.056768  -0.055312
     2  C    0.213457   0.411892
     3  H    0.002751   0.010507
     4  H    0.004621   0.000017
     5  H    0.002751  -0.012655
     6  H   -0.043338  -0.062406
     7  F    9.194754  -0.043337
     8  H   -0.043337   0.688174
 Mulliken charges:
               1
     1  C   -0.258022
     2  C    0.138568
     3  H    0.094544
     4  H    0.079015
     5  H    0.094544
     6  H    0.063120
     7  F   -0.274890
     8  H    0.063121
 Sum of Mulliken charges =  -0.00000
 Mulliken charges with hydrogens summed into heavy atoms:
               1
     1  C    0.010081
     2  C    0.264810
     7  F   -0.274890
 APT charges:
               1
     1  C   -0.004659
     2  C    0.654282
     3  H   -0.005593
     4  H    0.004594
     5  H   -0.005595
     6  H   -0.051752
     7  F   -0.539527
     8  H   -0.051751
 Sum of APT charges =   0.00000
 APT charges with hydrogens summed into heavy atoms:
               1
     1  C   -0.011252
     2  C    0.550779
     7  F   -0.539527
 Electronic spatial extent (au):  <R**2>=            179.6788
 Charge=              0.0000 electrons
 Dipole moment (field-independent basis, Debye):
    X=             -1.4146    Y=              0.9583    Z=             -0.0000  Tot=              1.7086
 Quadrupole moment (field-independent basis, Debye-Ang):
   XX=            -20.3799   YY=            -18.4847   ZZ=            -18.2706
   XY=              0.6916   XZ=             -0.0000   YZ=              0.0000
 Traceless Quadrupole moment (field-independent basis, Debye-Ang):
   XX=             -1.3348   YY=              0.5604   ZZ=              0.7744
   XY=              0.6916   XZ=             -0.0000   YZ=              0.0000
 Octapole moment (field-independent basis, Debye-Ang**2):
  XXX=              6.5152  YYY=             -2.0690  ZZZ=             -0.0000  XYY=              2.5736
  XXY=              0.3298  XXZ=              0.0000  XZZ=              3.0167  YZZ=             -0.7777
  YYZ=              0.0000  XYZ=             -0.0000
 Hexadecapole moment (field-independent basis, Debye-Ang**3):
 XXXX=           -136.2285 YYYY=            -52.5991 ZZZZ=            -30.8384 XXXY=             -5.0335
 XXXZ=             -0.0000 YYYX=             -3.2902 YYYZ=              0.0000 ZZZX=              0.0000
 ZZZY=              0.0000 XXYY=            -30.5402 XXZZ=            -28.1841 YYZZ=            -12.5131
 XXYZ=              0.0000 YYXZ=              0.0000 ZZXY=              0.0668
 N-N= 8.002483054548D+01 E-N=-5.820094464598D+02  KE= 1.783567107683D+02
  Exact polarizability:      27.552       0.714      26.867      -0.000      -0.000      25.829
 Approx polarizability:      33.000      -0.841      34.375      -0.000      -0.000      33.764
   1 Symmetry operations used in ECPInt.
 ECPInt:  NShTT=    1431 NPrTT=    4176 LenC2=    1428 LenP2D=    3708.
 LDataN:  DoStor=T MaxTD1= 8 Len=  415
 Calling FoFJK, ICntrl=    100127 FMM=F ISym2X=0 I1Cent= 0 IOpClX= 0 NMat=1 NMatS=1 NMatT=0.
 ***** Axes restored to original set *****
 -------------------------------------------------------------------
 Center     Atomic                   Forces (Hartrees/Bohr)
 Number     Number              X              Y              Z
 -------------------------------------------------------------------
      1        6           0.001628009    0.000497475   -0.000010591
      2        6          -0.012653964   -0.004706436    0.000057496
      3        1           0.000975030   -0.002208346   -0.000651574
      4        1           0.000362493    0.001571887   -0.000018013
      5        1           0.000977057   -0.002194480    0.000706907
      6        1           0.001046455   -0.002058552    0.000277696
      7        9           0.006618245    0.011162746   -0.000131649
      8        1           0.001046674   -0.002064295   -0.000230271
 -------------------------------------------------------------------
 Cartesian Forces:  Max     0.012653964 RMS     0.003976726
 FormGI is forming the generalized inverse of G from B-inverse, IUseBI=4.

 GradGradGradGradGradGradGradGradGradGradGradGradGradGradGradGradGradGrad
 Berny optimization.
 Internal  Forces:  Max     0.012778532 RMS     0.002867287
 Search for a local minimum.
 Step number   1 out of a maximum of   38
 All quantities printed in internal units (Hartrees-Bohrs-Radians)
 Mixed Optimization -- RFO/linear search
 Second derivative matrix not updated -- analytic derivatives used.
 ITU=  0
     Eigenvalues ---    0.00250   0.04157   0.04180   0.05060   0.07516
     Eigenvalues ---    0.11441   0.11991   0.12272   0.14466   0.17300
     Eigenvalues ---    0.25411   0.31118   0.32991   0.33022   0.33337
     Eigenvalues ---    0.33725   0.34033   0.43800
 RFO step:  Lambda=-7.80688260D-04 EMin= 2.50333626D-03
 Linear search not attempted -- first point.
 Iteration  1 RMS(Cart)=  0.01316582 RMS(Int)=  0.00015114
 Iteration  2 RMS(Cart)=  0.00013205 RMS(Int)=  0.00006249
 Iteration  3 RMS(Cart)=  0.00000002 RMS(Int)=  0.00006249
 Variable       Old X    -DE/DX   Delta X   Delta X   Delta X     New X
                                 (Linear)    (Quad)   (Total)
    R1        2.85373  -0.00401   0.00000  -0.02024  -0.02024   2.83349
    R2        2.06800  -0.00195   0.00000  -0.00620  -0.00620   2.06179
    R3        2.06626  -0.00159   0.00000  -0.00355  -0.00355   2.06272
    R4        2.06801  -0.00196   0.00000  -0.00622  -0.00622   2.06179
    R5        2.06607   0.00153   0.00000   0.00426   0.00426   2.07033
    R6        2.56833   0.01278   0.00000   0.02995   0.02995   2.59828
    R7        2.06607   0.00153   0.00000   0.00426   0.00426   2.07033
    A1        1.92642  -0.00036   0.00000   0.00585   0.00576   1.93218
    A2        1.93723   0.00020   0.00000  -0.01185  -0.01187   1.92536
    A3        1.92642  -0.00036   0.00000   0.00585   0.00576   1.93218
    A4        1.90042  -0.00035   0.00000  -0.00935  -0.00936   1.89106
    A5        1.87145   0.00125   0.00000   0.01951   0.01935   1.89080
    A6        1.90041  -0.00035   0.00000  -0.00934  -0.00935   1.89106
    A7        1.94180  -0.00020   0.00000   0.00418   0.00412   1.94593
    A8        1.89875   0.00445   0.00000   0.02081   0.02068   1.91943
    A9        1.94180  -0.00020   0.00000   0.00418   0.00412   1.94593
   A10        1.88727  -0.00134   0.00000  -0.00428  -0.00440   1.88288
   A11        1.90532  -0.00142   0.00000  -0.02087  -0.02086   1.88447
   A12        1.88728  -0.00134   0.00000  -0.00428  -0.00440   1.88288
    D1        1.04443   0.00050   0.00000  -0.00525  -0.00525   1.03918
    D2       -1.03284  -0.00055   0.00000  -0.01569  -0.01573  -1.04857
    D3       -3.11012  -0.00160   0.00000  -0.02613  -0.02620  -3.13633
    D4       -1.06432   0.00105   0.00000   0.01045   0.01048  -1.05384
    D5        3.14159  -0.00000   0.00000   0.00000   0.00000   3.14159
    D6        1.06431  -0.00105   0.00000  -0.01043  -0.01047   1.05384
    D7        3.11012   0.00160   0.00000   0.02613   0.02620   3.13633
    D8        1.03285   0.00055   0.00000   0.01569   0.01572   1.04857
    D9       -1.04443  -0.00050   0.00000   0.00525   0.00525  -1.03918
         Item               Value     Threshold  Converged?
 Maximum Force            0.012779     0.000450     NO 
 RMS     Force            0.002867     0.000300     NO 
 Maximum Displacement     0.042216     0.001800     NO 
 RMS     Displacement     0.013187     0.001200     NO 
 Predicted change in Energy=-3.924003D-04
 GradGradGradGradGradGradGradGradGradGradGradGradGradGradGradGradGradGrad

                          Input orientation:                          
 ---------------------------------------------------------------------
 Center     Atomic      Atomic             Coordinates (Angstroms)
 Number     Number       Type             X           Y           Z
 ---------------------------------------------------------------------
      1          6           0       -0.625489    0.998604    0.000207
      2          6           0        0.873134    0.949842    0.000603
      3          1           0       -0.994389    1.530263    0.878644
      4          1           0       -1.037544   -0.012106    0.012074
      5          1           0       -0.994595    1.509577   -0.890335
      6          1           0        1.258050    0.443632    0.892716
      7          9           0        1.384610    2.226029   -0.014380
      8          1           0        1.257843    0.422908   -0.879519
 ---------------------------------------------------------------------
                    Distance matrix (angstroms):
                    1          2          3          4          5
     1  C    0.000000
     2  C    1.499416   0.000000
     3  H    1.091054   2.143708   0.000000
     4  H    1.091542   2.139197   1.769663   0.000000
     5  H    1.091054   2.143708   1.769099   1.769662   0.000000
     6  H    2.156915   1.095570   2.500889   2.500595   3.064297
     7  F    2.355267   1.374950   2.634619   3.297996   2.634619
     8  H    2.156915   1.095570   3.064298   2.500595   2.500889
                    6          7          8
     6  H    0.000000
     7  F    2.003941   0.000000
     8  H    1.772356   2.003942   0.000000
 Stoichiometry    C2H5F
 Framework group  C1[X(C2H5F)]
 Deg. of freedom    18
 Full point group                 C1      NOp   1
 Largest Abelian subgroup         C1      NOp   1
 Largest concise Abelian subgroup C1      NOp   1
                         Standard orientation:                         
 ---------------------------------------------------------------------
 Center     Atomic      Atomic             Coordinates (Angstroms)
 Number     Number       Type             X           Y           Z
 ---------------------------------------------------------------------
      1          6           0       -1.181231   -0.217813    0.000000
      2          6           0        0.113063    0.539188    0.000000
      3          1           0       -1.257208   -0.852003   -0.884550
      4          1           0       -2.025155    0.474471    0.000000
      5          1           0       -1.257208   -0.852004    0.884550
      6          1           0        0.205200    1.176741   -0.886178
      7          9           0        1.170909   -0.339133    0.000000
      8          1           0        0.205200    1.176742    0.886178
 ---------------------------------------------------------------------
 Rotational constants (GHZ):          36.7569457           9.5314438           8.3600771
 Standard basis: def2TZVP (5D, 7F)
 There are   138 symmetry adapted cartesian basis functions of A   symmetry.
 There are   123 symmetry adapted basis functions of A   symmetry.
   123 basis functions,   193 primitive gaussians,   138 cartesian basis functions
    13 alpha electrons       13 beta electrons
       nuclear repulsion energy        79.7367664051 Hartrees.
 NAtoms=    8 NActive=    8 NUniq=    8 SFac= 1.00D+00 NAtFMM=   60 NAOKFM=F Big=F
 Integral buffers will be    131072 words long.
 Raffenetti 2 integral format.
 Two-electron integral symmetry is turned on.
 One-electron integrals computed using PRISM.
   1 Symmetry operations used in ECPInt.
 ECPInt:  NShTT=    1431 NPrTT=    4176 LenC2=    1428 LenP2D=    3706.
 LDataN:  DoStor=T MaxTD1= 6 Len=  172
 NBasis=   123 RedAO= T EigKep=  5.27D-04  NBF=   123
 NBsUse=   123 1.00D-06 EigRej= -1.00D+00 NBFU=   123
 Initial guess from the checkpoint file:  "checkpoint.chk"
 B after Tr=     0.000000   -0.000000    0.000000
         Rot=    0.999994    0.000000   -0.000000   -0.003449 Ang=   0.40 deg.
 ExpMin= 9.52D-02 ExpMax= 3.55D+04 ExpMxC= 1.21D+03 IAcc=3 IRadAn=         5 AccDes= 0.00D+00
 Harris functional with IExCor= 1009 and IRadAn=       5 diagonalized for initial guess.
 HarFok:  IExCor= 1009 AccDes= 0.00D+00 IRadAn=         5 IDoV= 1 UseB2=F ITyADJ=14
 ICtDFT=  3500011 ScaDFX=  1.000000  1.000000  1.000000  1.000000
 FoFCou: FMM=F IPFlag=           0 FMFlag=      100000 FMFlg1=           0
         NFxFlg=           0 DoJE=T BraDBF=F KetDBF=T FulRan=T
         wScrn=  0.000000 ICntrl=       500 IOpCl=  0 I1Cent=   200000004 NGrid=           0
         NMat0=    1 NMatS0=      1 NMatT0=    0 NMatD0=    1 NMtDS0=    0 NMtDT0=    0
 Petite list used in FoFCou.
 Keep R1 ints in memory in canonical form, NReq=32942117.
 Requested convergence on RMS density matrix=1.00D-08 within 128 cycles.
 Requested convergence on MAX density matrix=1.00D-06.
 Requested convergence on             energy=1.00D-06.
 No special actions if energy rises.
 Integral accuracy reduced to 1.0D-05 until final iterations.
 Initial convergence to 1.0D-05 achieved.  Increase integral accuracy.
 SCF Done:  E(RM06) =  -179.034391548     A.U. after   10 cycles
            NFock= 10  Conv=0.84D-08     -V/T= 2.0039
 DoSCS=F DFT=T ScalE2(SS,OS)=  1.000000  1.000000
 Range of M.O.s used for correlation:     1   123
 NBasis=   123 NAE=    13 NBE=    13 NFC=     0 NFV=     0
 NROrb=    123 NOA=    13 NOB=    13 NVA=   110 NVB=   110

 **** Warning!!: The largest alpha MO coefficient is  0.17665972D+02

   1 Symmetry operations used in ECPInt.
 ECPInt:  NShTT=    1431 NPrTT=    4176 LenC2=    1428 LenP2D=    3706.
 LDataN:  DoStor=T MaxTD1= 7 Len=  274
 Symmetrizing basis deriv contribution to polar:
 IMax=3 JMax=2 DiffMx= 0.00D+00
 G2DrvN: will do     9 centers at a time, making    1 passes.
 Calling FoFCou, ICntrl=  3107 FMM=F I1Cent=   0 AccDes= 0.00D+00.
 End of G2Drv F.D. properties file   721 does not exist.
 End of G2Drv F.D. properties file   722 does not exist.
 End of G2Drv F.D. properties file   788 does not exist.
          IDoAtm=11111111
          Differentiating once with respect to electric field.
                with respect to dipole field.
          Differentiating once with respect to nuclear coordinates.
 Keep R1 ints in memory in canonical form, NReq=32935850.
          There are    27 degrees of freedom in the 1st order CPHF.  IDoFFX=6 NUNeed=     3.
     24 vectors produced by pass  0 Test12= 5.30D-15 3.70D-09 XBig12= 1.41D+01 1.62D+00.
 AX will form    24 AO Fock derivatives at one time.
     24 vectors produced by pass  1 Test12= 5.30D-15 3.70D-09 XBig12= 9.20D-01 2.29D-01.
     24 vectors produced by pass  2 Test12= 5.30D-15 3.70D-09 XBig12= 9.09D-03 2.15D-02.
     24 vectors produced by pass  3 Test12= 5.30D-15 3.70D-09 XBig12= 8.13D-05 1.90D-03.
     24 vectors produced by pass  4 Test12= 5.30D-15 3.70D-09 XBig12= 3.47D-07 1.16D-04.
     24 vectors produced by pass  5 Test12= 5.30D-15 3.70D-09 XBig12= 9.43D-10 5.40D-06.
      9 vectors produced by pass  6 Test12= 5.30D-15 3.70D-09 XBig12= 1.88D-12 2.92D-07.
      3 vectors produced by pass  7 Test12= 5.30D-15 3.70D-09 XBig12= 4.72D-15 1.07D-08.
 InvSVY:  IOpt=1 It=  1 EMax= 1.33D-15
 Solved reduced A of dimension   156 with    27 vectors.
 Isotropic polarizability for W=    0.000000       26.73 Bohr**3.
 End of Minotr F.D. properties file   721 does not exist.
 End of Minotr F.D. properties file   722 does not exist.
 End of Minotr F.D. properties file   788 does not exist.
   1 Symmetry operations used in ECPInt.
 ECPInt:  NShTT=    1431 NPrTT=    4176 LenC2=    1428 LenP2D=    3706.
 LDataN:  DoStor=T MaxTD1= 8 Len=  415
 Calling FoFJK, ICntrl=    100127 FMM=F ISym2X=0 I1Cent= 0 IOpClX= 0 NMat=1 NMatS=1 NMatT=0.
 ***** Axes restored to original set *****
 -------------------------------------------------------------------
 Center     Atomic                   Forces (Hartrees/Bohr)
 Number     Number              X              Y              Z
 -------------------------------------------------------------------
      1        6          -0.000191262   -0.000016787    0.000000275
      2        6          -0.000202399   -0.000422437    0.000005011
      3        1          -0.000009364   -0.000026588    0.000037965
      4        1          -0.000019162   -0.000007976    0.000000102
      5        1          -0.000009400   -0.000027427   -0.000037403
      6        1           0.000039928   -0.000033038   -0.000004252
      7        9           0.000351726    0.000567172   -0.000006687
      8        1           0.000039932   -0.000032918    0.000004990
 -------------------------------------------------------------------
 Cartesian Forces:  Max     0.000567172 RMS     0.000172247
 FormGI is forming the generalized inverse of G from B-inverse, IUseBI=4.

 GradGradGradGradGradGradGradGradGradGradGradGradGradGradGradGradGradGrad
 Berny optimization.
 Using GEDIIS/GDIIS optimizer.
 Internal  Forces:  Max     0.000657348 RMS     0.000140785
 Search for a local minimum.
 Step number   2 out of a maximum of   38
 All quantities printed in internal units (Hartrees-Bohrs-Radians)
 Mixed Optimization -- En-DIIS/RFO-DIIS
 Second derivative matrix not updated -- analytic derivatives used.
 DE= -3.99D-04 DEPred=-3.92D-04 R= 1.02D+00
 TightC=F SS=  1.41D+00  RLast= 7.26D-02 DXNew= 5.0454D-01 2.1774D-01
 Trust test= 1.02D+00 RLast= 7.26D-02 DXMaxT set to 3.00D-01
 ITU=  1  0
 Use linear search instead of GDIIS.
     Eigenvalues ---    0.00250   0.04101   0.04241   0.04997   0.07212
     Eigenvalues ---    0.11504   0.12089   0.12307   0.14423   0.17271
     Eigenvalues ---    0.24657   0.31875   0.32381   0.32581   0.33996
     Eigenvalues ---    0.34163   0.34531   0.40369
 RFO step:  Lambda=-6.83613110D-07 EMin= 2.49735786D-03
 Quintic linear search produced a step of  0.03433.
 Iteration  1 RMS(Cart)=  0.00062902 RMS(Int)=  0.00000222
 Iteration  2 RMS(Cart)=  0.00000028 RMS(Int)=  0.00000221
 Variable       Old X    -DE/DX   Delta X   Delta X   Delta X     New X
                                 (Linear)    (Quad)   (Total)
    R1        2.83349   0.00023  -0.00069   0.00112   0.00043   2.83391
    R2        2.06179   0.00002  -0.00021   0.00023   0.00002   2.06181
    R3        2.06272   0.00001  -0.00012   0.00019   0.00007   2.06279
    R4        2.06179   0.00002  -0.00021   0.00023   0.00002   2.06181
    R5        2.07033   0.00003   0.00015  -0.00014   0.00001   2.07033
    R6        2.59828   0.00066   0.00103   0.00068   0.00171   2.59999
    R7        2.07033   0.00003   0.00015  -0.00014   0.00001   2.07033
    A1        1.93218   0.00000   0.00020   0.00004   0.00023   1.93242
    A2        1.92536   0.00001  -0.00041  -0.00012  -0.00053   1.92483
    A3        1.93218   0.00000   0.00020   0.00004   0.00023   1.93242
    A4        1.89106  -0.00002  -0.00032   0.00003  -0.00029   1.89077
    A5        1.89080   0.00002   0.00066  -0.00002   0.00064   1.89143
    A6        1.89106  -0.00002  -0.00032   0.00003  -0.00029   1.89077
    A7        1.94593   0.00000   0.00014   0.00006   0.00020   1.94613
    A8        1.91943   0.00021   0.00071   0.00009   0.00080   1.92022
    A9        1.94593   0.00000   0.00014   0.00006   0.00020   1.94613
   A10        1.88288  -0.00009  -0.00015  -0.00030  -0.00046   1.88242
   A11        1.88447  -0.00005  -0.00072   0.00037  -0.00035   1.88412
   A12        1.88288  -0.00009  -0.00015  -0.00030  -0.00046   1.88242
    D1        1.03918   0.00001  -0.00018  -0.00029  -0.00047   1.03871
    D2       -1.04857  -0.00002  -0.00054  -0.00001  -0.00055  -1.04913
    D3       -3.13633  -0.00005  -0.00090   0.00026  -0.00064  -3.13697
    D4       -1.05384   0.00003   0.00036  -0.00028   0.00009  -1.05375
    D5        3.14159  -0.00000   0.00000   0.00000   0.00000  -3.14159
    D6        1.05384  -0.00003  -0.00036   0.00028  -0.00008   1.05375
    D7        3.13633   0.00005   0.00090  -0.00026   0.00064   3.13697
    D8        1.04857   0.00002   0.00054   0.00001   0.00055   1.04913
    D9       -1.03918  -0.00001   0.00018   0.00029   0.00047  -1.03871
         Item               Value     Threshold  Converged?
 Maximum Force            0.000657     0.000450     NO 
 RMS     Force            0.000141     0.000300     YES
 Maximum Displacement     0.002587     0.001800     NO 
 RMS     Displacement     0.000629     0.001200     YES
 Predicted change in Energy=-8.023149D-07
 GradGradGradGradGradGradGradGradGradGradGradGradGradGradGradGradGradGrad

                          Input orientation:                          
 ---------------------------------------------------------------------
 Center     Atomic      Atomic             Coordinates (Angstroms)
 Number     Number       Type             X           Y           Z
 ---------------------------------------------------------------------
      1          6           0       -0.625824    0.998803    0.000205
      2          6           0        0.873021    0.949884    0.000602
      3          1           0       -0.994932    1.529978    0.878859
      4          1           0       -1.037457   -0.012119    0.012074
      5          1           0       -0.995139    1.509288   -0.890544
      6          1           0        1.258090    0.443592    0.892606
      7          9           0        1.385979    2.226453   -0.014385
      8          1           0        1.257883    0.422871   -0.879408
 ---------------------------------------------------------------------
                    Distance matrix (angstroms):
                    1          2          3          4          5
     1  C    0.000000
     2  C    1.499643   0.000000
     3  H    1.091064   2.144083   0.000000
     4  H    1.091580   2.139044   1.769517   0.000000
     5  H    1.091064   2.144083   1.769524   1.769517   0.000000
     6  H    2.157260   1.095573   2.501306   2.500508   3.064697
     7  F    2.356838   1.375855   2.636608   3.299234   2.636608
     8  H    2.157260   1.095573   3.064697   2.500508   2.501306
                    6          7          8
     6  H    0.000000
     7  F    2.004391   0.000000
     8  H    1.772135   2.004391   0.000000
 Stoichiometry    C2H5F
 Framework group  C1[X(C2H5F)]
 Deg. of freedom    18
 Full point group                 C1      NOp   1
 Largest Abelian subgroup         C1      NOp   1
 Largest concise Abelian subgroup C1      NOp   1
                         Standard orientation:                         
 ---------------------------------------------------------------------
 Center     Atomic      Atomic             Coordinates (Angstroms)
 Number     Number       Type             X           Y           Z
 ---------------------------------------------------------------------
      1          6           0       -1.181831   -0.218036    0.000000
      2          6           0        0.112658    0.539082    0.000000
      3          1           0       -1.258285   -0.851891   -0.884762
      4          1           0       -2.025417    0.474719   -0.000000
      5          1           0       -1.258285   -0.851891    0.884762
      6          1           0        0.204953    1.176770   -0.886067
      7          9           0        1.171902   -0.338973    0.000000
      8          1           0        0.204953    1.176770    0.886067
 ---------------------------------------------------------------------
 Rotational constants (GHZ):          36.7618396           9.5196219           8.3513336
 Standard basis: def2TZVP (5D, 7F)
 There are   138 symmetry adapted cartesian basis functions of A   symmetry.
 There are   123 symmetry adapted basis functions of A   symmetry.
   123 basis functions,   193 primitive gaussians,   138 cartesian basis functions
    13 alpha electrons       13 beta electrons
       nuclear repulsion energy        79.7075994523 Hartrees.
 NAtoms=    8 NActive=    8 NUniq=    8 SFac= 1.00D+00 NAtFMM=   60 NAOKFM=F Big=F
 Integral buffers will be    131072 words long.
 Raffenetti 2 integral format.
 Two-electron integral symmetry is turned on.
 One-electron integrals computed using PRISM.
   1 Symmetry operations used in ECPInt.
 ECPInt:  NShTT=    1431 NPrTT=    4176 LenC2=    1428 LenP2D=    3706.
 LDataN:  DoStor=T MaxTD1= 6 Len=  172
 NBasis=   123 RedAO= T EigKep=  5.27D-04  NBF=   123
 NBsUse=   123 1.00D-06 EigRej= -1.00D+00 NBFU=   123
 Initial guess from the checkpoint file:  "checkpoint.chk"
 B after Tr=     0.000000    0.000000   -0.000000
         Rot=    1.000000    0.000000    0.000000   -0.000068 Ang=   0.01 deg.
 Keep R1 ints in memory in canonical form, NReq=32942117.
 Requested convergence on RMS density matrix=1.00D-08 within 128 cycles.
 Requested convergence on MAX density matrix=1.00D-06.
 Requested convergence on             energy=1.00D-06.
 No special actions if energy rises.
 SCF Done:  E(RM06) =  -179.034392351     A.U. after    7 cycles
            NFock=  7  Conv=0.18D-08     -V/T= 2.0039
 DoSCS=F DFT=T ScalE2(SS,OS)=  1.000000  1.000000
 Range of M.O.s used for correlation:     1   123
 NBasis=   123 NAE=    13 NBE=    13 NFC=     0 NFV=     0
 NROrb=    123 NOA=    13 NOB=    13 NVA=   110 NVB=   110

 **** Warning!!: The largest alpha MO coefficient is  0.17655801D+02

   1 Symmetry operations used in ECPInt.
 ECPInt:  NShTT=    1431 NPrTT=    4176 LenC2=    1428 LenP2D=    3706.
 LDataN:  DoStor=T MaxTD1= 7 Len=  274
 Symmetrizing basis deriv contribution to polar:
 IMax=3 JMax=2 DiffMx= 0.00D+00
 G2DrvN: will do     9 centers at a time, making    1 passes.
 Calling FoFCou, ICntrl=  3107 FMM=F I1Cent=   0 AccDes= 0.00D+00.
 End of G2Drv F.D. properties file   721 does not exist.
 End of G2Drv F.D. properties file   722 does not exist.
 End of G2Drv F.D. properties file   788 does not exist.
          IDoAtm=11111111
          Differentiating once with respect to electric field.
                with respect to dipole field.
          Differentiating once with respect to nuclear coordinates.
 Keep R1 ints in memory in canonical form, NReq=32935850.
          There are    27 degrees of freedom in the 1st order CPHF.  IDoFFX=6 NUNeed=     3.
     24 vectors produced by pass  0 Test12= 5.30D-15 3.70D-09 XBig12= 1.41D+01 1.62D+00.
 AX will form    24 AO Fock derivatives at one time.
     24 vectors produced by pass  1 Test12= 5.30D-15 3.70D-09 XBig12= 9.23D-01 2.30D-01.
     24 vectors produced by pass  2 Test12= 5.30D-15 3.70D-09 XBig12= 9.11D-03 2.15D-02.
     24 vectors produced by pass  3 Test12= 5.30D-15 3.70D-09 XBig12= 8.16D-05 1.90D-03.
     24 vectors produced by pass  4 Test12= 5.30D-15 3.70D-09 XBig12= 3.49D-07 1.16D-04.
     24 vectors produced by pass  5 Test12= 5.30D-15 3.70D-09 XBig12= 9.43D-10 5.39D-06.
      9 vectors produced by pass  6 Test12= 5.30D-15 3.70D-09 XBig12= 1.88D-12 2.91D-07.
      3 vectors produced by pass  7 Test12= 5.30D-15 3.70D-09 XBig12= 4.73D-15 1.08D-08.
 InvSVY:  IOpt=1 It=  1 EMax= 1.78D-15
 Solved reduced A of dimension   156 with    27 vectors.
 Isotropic polarizability for W=    0.000000       26.73 Bohr**3.
 End of Minotr F.D. properties file   721 does not exist.
 End of Minotr F.D. properties file   722 does not exist.
 End of Minotr F.D. properties file   788 does not exist.
   1 Symmetry operations used in ECPInt.
 ECPInt:  NShTT=    1431 NPrTT=    4176 LenC2=    1428 LenP2D=    3706.
 LDataN:  DoStor=T MaxTD1= 8 Len=  415
 Calling FoFJK, ICntrl=    100127 FMM=F ISym2X=0 I1Cent= 0 IOpClX= 0 NMat=1 NMatS=1 NMatT=0.
 ***** Axes restored to original set *****
 -------------------------------------------------------------------
 Center     Atomic                   Forces (Hartrees/Bohr)
 Number     Number              X              Y              Z
 -------------------------------------------------------------------
      1        6          -0.000009220   -0.000011996    0.000000144
      2        6           0.000002019   -0.000017864    0.000000206
      3        1          -0.000000533    0.000004728   -0.000000864
      4        1          -0.000001100   -0.000000828    0.000000008
      5        1          -0.000000534    0.000004746    0.000000753
      6        1          -0.000000034    0.000002316    0.000001596
      7        9           0.000009437    0.000016621   -0.000000195
      8        1          -0.000000036    0.000002278   -0.000001648
 -------------------------------------------------------------------
 Cartesian Forces:  Max     0.000017864 RMS     0.000006397
 FormGI is forming the generalized inverse of G from B-inverse, IUseBI=4.

 GradGradGradGradGradGradGradGradGradGradGradGradGradGradGradGradGradGrad
 Berny optimization.
 Using GEDIIS/GDIIS optimizer.
 Internal  Forces:  Max     0.000018938 RMS     0.000004503
 Search for a local minimum.
 Step number   3 out of a maximum of   38
 All quantities printed in internal units (Hartrees-Bohrs-Radians)
 Mixed Optimization -- En-DIIS/RFO-DIIS
 Swapping is turned off.
 Second derivative matrix not updated -- analytic derivatives used.
 DE= -8.04D-07 DEPred=-8.02D-07 R= 1.00D+00
 Trust test= 1.00D+00 RLast= 2.69D-03 DXMaxT set to 3.00D-01
 ITU=  0  1  0
     Eigenvalues ---    0.00249   0.04096   0.04243   0.04991   0.07199
     Eigenvalues ---    0.11498   0.12085   0.12302   0.14407   0.17262
     Eigenvalues ---    0.24603   0.31821   0.32362   0.32581   0.33996
     Eigenvalues ---    0.34156   0.34525   0.40186
 En-DIIS/RFO-DIIS/Sim-DIIS IScMMF=       -3 using points:     3    2
 RFO step:  Lambda=-1.80457806D-09.
 DidBck=F Rises=F RFO-DIIS coefs:    0.98179    0.01821
 Iteration  1 RMS(Cart)=  0.00002652 RMS(Int)=  0.00000000
 Iteration  2 RMS(Cart)=  0.00000000 RMS(Int)=  0.00000000
 Variable       Old X    -DE/DX   Delta X   Delta X   Delta X     New X
                                 (Linear)    (Quad)   (Total)
    R1        2.83391   0.00001  -0.00001   0.00004   0.00003   2.83395
    R2        2.06181   0.00000  -0.00000   0.00001   0.00001   2.06182
    R3        2.06279   0.00000  -0.00000  -0.00000  -0.00000   2.06279
    R4        2.06181   0.00000  -0.00000   0.00001   0.00001   2.06182
    R5        2.07033   0.00000  -0.00000  -0.00000  -0.00000   2.07033
    R6        2.59999   0.00002  -0.00003   0.00009   0.00006   2.60005
    R7        2.07033   0.00000  -0.00000  -0.00000  -0.00000   2.07033
    A1        1.93242  -0.00000  -0.00000  -0.00002  -0.00002   1.93240
    A2        1.92483   0.00000   0.00001   0.00002   0.00003   1.92486
    A3        1.93242  -0.00000  -0.00000  -0.00002  -0.00002   1.93240
    A4        1.89077   0.00000   0.00001   0.00003   0.00003   1.89080
    A5        1.89143  -0.00000  -0.00001  -0.00004  -0.00005   1.89138
    A6        1.89077   0.00000   0.00001   0.00003   0.00003   1.89080
    A7        1.94613  -0.00000  -0.00000   0.00001   0.00001   1.94613
    A8        1.92022   0.00000  -0.00001   0.00001  -0.00001   1.92022
    A9        1.94613  -0.00000  -0.00000   0.00001   0.00001   1.94613
   A10        1.88242  -0.00000   0.00001  -0.00003  -0.00003   1.88240
   A11        1.88412   0.00000   0.00001   0.00003   0.00004   1.88416
   A12        1.88242  -0.00000   0.00001  -0.00003  -0.00003   1.88240
    D1        1.03871   0.00000   0.00001   0.00001   0.00002   1.03873
    D2       -1.04913   0.00000   0.00001   0.00004   0.00005  -1.04908
    D3       -3.13697   0.00000   0.00001   0.00007   0.00008  -3.13689
    D4       -1.05375  -0.00000  -0.00000  -0.00003  -0.00003  -1.05379
    D5       -3.14159  -0.00000  -0.00000  -0.00000  -0.00000   3.14159
    D6        1.05375   0.00000   0.00000   0.00003   0.00003   1.05379
    D7        3.13697  -0.00000  -0.00001  -0.00007  -0.00008   3.13689
    D8        1.04913  -0.00000  -0.00001  -0.00004  -0.00005   1.04908
    D9       -1.03871  -0.00000  -0.00001  -0.00001  -0.00002  -1.03873
         Item               Value     Threshold  Converged?
 Maximum Force            0.000019     0.000450     YES
 RMS     Force            0.000005     0.000300     YES
 Maximum Displacement     0.000075     0.001800     YES
 RMS     Displacement     0.000027     0.001200     YES
 Predicted change in Energy=-1.317082D-09
 Optimization completed.
    -- Stationary point found.
                           ----------------------------
                           !   Optimized Parameters   !
                           ! (Angstroms and Degrees)  !
 --------------------------                            --------------------------
 ! Name  Definition              Value          Derivative Info.                !
 --------------------------------------------------------------------------------
 ! R1    R(1,2)                  1.4996         -DE/DX =    0.0                 !
 ! R2    R(1,3)                  1.0911         -DE/DX =    0.0                 !
 ! R3    R(1,4)                  1.0916         -DE/DX =    0.0                 !
 ! R4    R(1,5)                  1.0911         -DE/DX =    0.0                 !
 ! R5    R(2,6)                  1.0956         -DE/DX =    0.0                 !
 ! R6    R(2,7)                  1.3759         -DE/DX =    0.0                 !
 ! R7    R(2,8)                  1.0956         -DE/DX =    0.0                 !
 ! A1    A(2,1,3)              110.7192         -DE/DX =    0.0                 !
 ! A2    A(2,1,4)              110.2847         -DE/DX =    0.0                 !
 ! A3    A(2,1,5)              110.7192         -DE/DX =    0.0                 !
 ! A4    A(3,1,4)              108.333          -DE/DX =    0.0                 !
 ! A5    A(3,1,5)              108.3711         -DE/DX =    0.0                 !
 ! A6    A(4,1,5)              108.333          -DE/DX =    0.0                 !
 ! A7    A(1,2,6)              111.5049         -DE/DX =    0.0                 !
 ! A8    A(1,2,7)              110.0208         -DE/DX =    0.0                 !
 ! A9    A(1,2,8)              111.5049         -DE/DX =    0.0                 !
 ! A10   A(6,2,7)              107.8548         -DE/DX =    0.0                 !
 ! A11   A(6,2,8)              107.952          -DE/DX =    0.0                 !
 ! A12   A(7,2,8)              107.8548         -DE/DX =    0.0                 !
 ! D1    D(3,1,2,6)             59.5138         -DE/DX =    0.0                 !
 ! D2    D(3,1,2,7)            -60.1106         -DE/DX =    0.0                 !
 ! D3    D(3,1,2,8)           -179.7349         -DE/DX =    0.0                 !
 ! D4    D(4,1,2,6)            -60.3756         -DE/DX =    0.0                 !
 ! D5    D(4,1,2,7)            180.0            -DE/DX =    0.0                 !
 ! D6    D(4,1,2,8)             60.3756         -DE/DX =    0.0                 !
 ! D7    D(5,1,2,6)            179.735          -DE/DX =    0.0                 !
 ! D8    D(5,1,2,7)             60.1106         -DE/DX =    0.0                 !
 ! D9    D(5,1,2,8)            -59.5138         -DE/DX =    0.0                 !
 --------------------------------------------------------------------------------
 GradGradGradGradGradGradGradGradGradGradGradGradGradGradGradGradGradGrad

                          Input orientation:                          
 ---------------------------------------------------------------------
 Center     Atomic      Atomic             Coordinates (Angstroms)
 Number     Number       Type             X           Y           Z
 ---------------------------------------------------------------------
      1          6           0       -0.625824    0.998803    0.000205
      2          6           0        0.873021    0.949884    0.000602
      3          1           0       -0.994932    1.529978    0.878859
      4          1           0       -1.037457   -0.012119    0.012074
      5          1           0       -0.995139    1.509288   -0.890544
      6          1           0        1.258090    0.443592    0.892606
      7          9           0        1.385979    2.226453   -0.014385
      8          1           0        1.257883    0.422871   -0.879408
 ---------------------------------------------------------------------
                    Distance matrix (angstroms):
                    1          2          3          4          5
     1  C    0.000000
     2  C    1.499643   0.000000
     3  H    1.091064   2.144083   0.000000
     4  H    1.091580   2.139044   1.769517   0.000000
     5  H    1.091064   2.144083   1.769524   1.769517   0.000000
     6  H    2.157260   1.095573   2.501306   2.500508   3.064697
     7  F    2.356838   1.375855   2.636608   3.299234   2.636608
     8  H    2.157260   1.095573   3.064697   2.500508   2.501306
                    6          7          8
     6  H    0.000000
     7  F    2.004391   0.000000
     8  H    1.772135   2.004391   0.000000
 Stoichiometry    C2H5F
 Framework group  C1[X(C2H5F)]
 Deg. of freedom    18
 Full point group                 C1      NOp   1
 Largest Abelian subgroup         C1      NOp   1
 Largest concise Abelian subgroup C1      NOp   1
                         Standard orientation:                         
 ---------------------------------------------------------------------
 Center     Atomic      Atomic             Coordinates (Angstroms)
 Number     Number       Type             X           Y           Z
 ---------------------------------------------------------------------
      1          6           0       -1.181831   -0.218036    0.000000
      2          6           0        0.112658    0.539082    0.000000
      3          1           0       -1.258285   -0.851891   -0.884762
      4          1           0       -2.025417    0.474719   -0.000000
      5          1           0       -1.258285   -0.851891    0.884762
      6          1           0        0.204953    1.176770   -0.886067
      7          9           0        1.171902   -0.338973    0.000000
      8          1           0        0.204953    1.176770    0.886067
 ---------------------------------------------------------------------
 Rotational constants (GHZ):          36.7618396           9.5196219           8.3513336

 **********************************************************************

            Population analysis using the SCF Density.

 **********************************************************************

 Orbital symmetries:
       Occupied  (A) (A) (A) (A) (A) (A) (A) (A) (A) (A) (A) (A)
                 (A)
       Virtual   (A) (A) (A) (A) (A) (A) (A) (A) (A) (A) (A) (A)
                 (A) (A) (A) (A) (A) (A) (A) (A) (A) (A) (A) (A)
                 (A) (A) (A) (A) (A) (A) (A) (A) (A) (A) (A) (A)
                 (A) (A) (A) (A) (A) (A) (A) (A) (A) (A) (A) (A)
                 (A) (A) (A) (A) (A) (A) (A) (A) (A) (A) (A) (A)
                 (A) (A) (A) (A) (A) (A) (A) (A) (A) (A) (A) (A)
                 (A) (A) (A) (A) (A) (A) (A) (A) (A) (A) (A) (A)
                 (A) (A) (A) (A) (A) (A) (A) (A) (A) (A) (A) (A)
                 (A) (A) (A) (A) (A) (A) (A) (A) (A) (A) (A) (A)
                 (A) (A)
 The electronic state is 1-A.
 Alpha  occ. eigenvalues --  -24.75182 -10.31133 -10.23617  -1.22764  -0.78011
 Alpha  occ. eigenvalues --   -0.64344  -0.51801  -0.51157  -0.47280  -0.41254
 Alpha  occ. eigenvalues --   -0.40770  -0.35670  -0.34409
 Alpha virt. eigenvalues --    0.03926   0.07255   0.08781   0.10000   0.10666
 Alpha virt. eigenvalues --    0.11992   0.16947   0.19600   0.22836   0.25577
 Alpha virt. eigenvalues --    0.27445   0.30766   0.34602   0.36703   0.38502
 Alpha virt. eigenvalues --    0.40200   0.41686   0.45621   0.45622   0.53179
 Alpha virt. eigenvalues --    0.56284   0.63062   0.63773   0.74418   0.76006
 Alpha virt. eigenvalues --    0.79429   0.81013   0.89483   0.93184   0.98489
 Alpha virt. eigenvalues --    1.00887   1.04285   1.08129   1.13045   1.43576
 Alpha virt. eigenvalues --    1.44238   1.45288   1.50139   1.51310   1.51439
 Alpha virt. eigenvalues --    1.59464   1.66701   1.68627   1.77365   1.78950
 Alpha virt. eigenvalues --    1.80954   1.84456   1.94523   2.02579   2.03263
 Alpha virt. eigenvalues --    2.17272   2.24256   2.26744   2.27793   2.29499
 Alpha virt. eigenvalues --    2.34640   2.35432   2.45081   2.45400   2.51709
 Alpha virt. eigenvalues --    2.55119   2.60300   2.60363   2.74271   2.75652
 Alpha virt. eigenvalues --    2.76351   2.85788   2.96454   2.97565   3.01616
 Alpha virt. eigenvalues --    3.02300   3.09172   3.14233   3.17631   3.21511
 Alpha virt. eigenvalues --    3.24595   3.27802   3.35569   3.45083   3.45596
 Alpha virt. eigenvalues --    3.63337   3.69848   3.73404   3.74901   3.81387
 Alpha virt. eigenvalues --    3.87707   3.88927   3.94747   4.07514   4.15585
 Alpha virt. eigenvalues --    4.25604   4.27098   4.32724   4.69263   5.20292
 Alpha virt. eigenvalues --    6.92792   6.93214   7.01974   7.02562   7.27204
 Alpha virt. eigenvalues --    7.29964   7.33419   8.46069   8.47933   8.85899
 Alpha virt. eigenvalues --    8.90332   9.09103  22.22428  22.36087  57.07203
          Condensed to atoms (all electrons):
               1          2          3          4          5          6
     1  C    4.991826   0.250481   0.398888   0.374807   0.398888  -0.055391
     2  C    0.250481   4.675170  -0.034937  -0.026589  -0.034937   0.412391
     3  H    0.398888  -0.034937   0.600896  -0.025168  -0.034726  -0.012782
     4  H    0.374807  -0.026589  -0.025168   0.618488  -0.025168  -0.000488
     5  H    0.398888  -0.034937  -0.034726  -0.025168   0.600896   0.010660
     6  H   -0.055391   0.412391  -0.012782  -0.000488   0.010660   0.684284
     7  F   -0.053054   0.216199   0.002579   0.004393   0.002579  -0.041936
     8  H   -0.055391   0.412391   0.010660  -0.000488  -0.012782  -0.063032
               7          8
     1  C   -0.053054  -0.055391
     2  C    0.216199   0.412391
     3  H    0.002579   0.010660
     4  H    0.004393  -0.000488
     5  H    0.002579  -0.012782
     6  H   -0.041936  -0.063032
     7  F    9.191927  -0.041936
     8  H   -0.041936   0.684284
 Mulliken charges:
               1
     1  C   -0.251055
     2  C    0.129831
     3  H    0.094589
     4  H    0.080210
     5  H    0.094589
     6  H    0.066294
     7  F   -0.280752
     8  H    0.066294
 Sum of Mulliken charges =  -0.00000
 Mulliken charges with hydrogens summed into heavy atoms:
               1
     1  C    0.018333
     2  C    0.262419
     7  F   -0.280752
 APT charges:
               1
     1  C   -0.009844
     2  C    0.653804
     3  H   -0.003308
     4  H    0.006399
     5  H   -0.003308
     6  H   -0.050612
     7  F   -0.542518
     8  H   -0.050612
 Sum of APT charges =   0.00000
 APT charges with hydrogens summed into heavy atoms:
               1
     1  C   -0.010061
     2  C    0.552579
     7  F   -0.542518
 Electronic spatial extent (au):  <R**2>=            181.0774
 Charge=             -0.0000 electrons
 Dipole moment (field-independent basis, Debye):
    X=             -1.5331    Y=              0.9760    Z=              0.0000  Tot=              1.8174
 Quadrupole moment (field-independent basis, Debye-Ang):
   XX=            -20.4139   YY=            -18.4549   ZZ=            -18.2510
   XY=              0.6903   XZ=             -0.0000   YZ=             -0.0000
 Traceless Quadrupole moment (field-independent basis, Debye-Ang):
   XX=             -1.3740   YY=              0.5850   ZZ=              0.7889
   XY=              0.6903   XZ=             -0.0000   YZ=             -0.0000
 Octapole moment (field-independent basis, Debye-Ang**2):
  XXX=              6.2754  YYY=             -1.8820  ZZZ=              0.0000  XYY=              2.5912
  XXY=              0.3240  XXZ=              0.0000  XZZ=              2.9247  YZZ=             -0.7669
  YYZ=             -0.0000  XYZ=              0.0000
 Hexadecapole moment (field-independent basis, Debye-Ang**3):
 XXXX=           -137.7714 YYYY=            -52.1591 ZZZZ=            -30.7288 XXXY=             -4.9474
 XXXZ=             -0.0000 YYYX=             -3.2192 YYYZ=              0.0000 ZZZX=             -0.0000
 ZZZY=             -0.0000 XXYY=            -30.7372 XXZZ=            -28.3435 YYZZ=            -12.4192
 XXYZ=             -0.0000 YYXZ=              0.0000 ZZXY=              0.1069
 N-N= 7.970759945234D+01 E-N=-5.813833538330D+02  KE= 1.783421472883D+02
  Exact polarizability:      27.651       0.604      26.789       0.000       0.000      25.758
 Approx polarizability:      33.192      -1.007      34.269       0.000       0.000      33.670
 Rotating derivatives to standard orientation.
 Full mass-weighted force constant matrix:
 Low frequencies ---  -34.5285  -16.4496  -15.7624    0.0009    0.0012    0.0013
 Low frequencies ---  249.5833  414.5680  795.0351
 Diagonal vibrational polarizability:
        3.2429995       1.4349375       0.5199279
 Harmonic frequencies (cm**-1), IR intensities (KM/Mole), Raman scattering
 activities (A**4/AMU), depolarization ratios for plane and unpolarized
 incident light, reduced masses (AMU), force constants (mDyne/A),
 and normal coordinates:
                      1                      2                      3
                      A                      A                      A
 Frequencies --    249.5804               414.5680               795.0348
 Red. masses --      1.1303                 2.7793                 1.0807
 Frc consts  --      0.0415                 0.2814                 0.4025
 IR Inten    --      0.4229                 5.3744                 0.2779
  Atom  AN      X      Y      Z        X      Y      Z        X      Y      Z
     1   6     0.00  -0.00  -0.00    -0.20   0.04   0.00    -0.00  -0.00  -0.05
     2   6    -0.00   0.00  -0.08    -0.03  -0.19  -0.00     0.00   0.00  -0.06
     3   1    -0.32   0.36  -0.23    -0.53   0.10  -0.01    -0.34  -0.28   0.19
     4   1    -0.00   0.00   0.60     0.11   0.44   0.00    -0.00  -0.00   0.18
     5   1     0.32  -0.36  -0.23    -0.53   0.10   0.01     0.34   0.28   0.19
     6   1     0.02  -0.09  -0.14    -0.10  -0.17   0.01     0.27   0.35   0.22
     7   9    -0.00  -0.00   0.06     0.21   0.08   0.00    -0.00   0.00   0.02
     8   1    -0.02   0.09  -0.14    -0.10  -0.17  -0.01    -0.27  -0.35   0.22
                      4                      5                      6
                      A                      A                      A
 Frequencies --    899.3071              1096.6636              1137.2368
 Red. masses --      1.9886                 3.0009                 2.7562
 Frc consts  --      0.9476                 2.1264                 2.1002
 IR Inten    --     14.0632                58.4873                65.4985
  Atom  AN      X      Y      Z        X      Y      Z        X      Y      Z
     1   6     0.21  -0.03   0.00    -0.12  -0.17  -0.00     0.03  -0.16  -0.00
     2   6    -0.01  -0.12   0.00     0.32   0.05   0.00    -0.10   0.29   0.00
     3   1    -0.19   0.10  -0.05    -0.47  -0.15   0.01    -0.45   0.04  -0.09
     4   1     0.66   0.54   0.00     0.00  -0.01   0.00     0.38   0.30   0.00
     5   1    -0.19   0.10   0.05    -0.47  -0.15  -0.01    -0.45   0.04   0.09
     6   1    -0.21  -0.08   0.00     0.40   0.10   0.03    -0.17   0.26  -0.02
     7   9    -0.12   0.07  -0.00    -0.12   0.08  -0.00     0.09  -0.13  -0.00
     8   1    -0.21  -0.08  -0.00     0.40   0.10  -0.03    -0.17   0.26   0.02
                      7                      8                      9
                      A                      A                      A
 Frequencies --   1181.1502              1292.8777              1384.6649
 Red. masses --      1.5865                 1.0866                 1.2230
 Frc consts  --      1.3041                 1.0701                 1.3815
 IR Inten    --      5.5334                 0.4088                 1.4099
  Atom  AN      X      Y      Z        X      Y      Z        X      Y      Z
     1   6     0.00   0.00  -0.13    -0.00  -0.00   0.07    -0.09  -0.08  -0.00
     2   6    -0.00  -0.00   0.18    -0.00   0.00  -0.01    -0.07   0.00  -0.00
     3   1    -0.26  -0.28   0.11     0.15   0.15  -0.05     0.35   0.13  -0.17
     4   1    -0.00  -0.00   0.26     0.00  -0.00  -0.09     0.32   0.41   0.00
     5   1     0.26   0.28   0.11    -0.15  -0.15  -0.05     0.35   0.13   0.17
     6   1     0.14  -0.49  -0.15     0.66  -0.12  -0.01     0.43  -0.02   0.03
     7   9     0.00   0.00  -0.04    -0.00   0.00  -0.03     0.00   0.01   0.00
     8   1    -0.14   0.49  -0.15    -0.66   0.12  -0.01     0.43  -0.02  -0.03
                     10                     11                     12
                      A                      A                      A
 Frequencies --   1415.0330              1459.9510              1476.3286
 Red. masses --      1.3812                 1.0382                 1.0638
 Frc consts  --      1.6295                 1.3038                 1.3660
 IR Inten    --     32.5362                 5.8042                 1.2761
  Atom  AN      X      Y      Z        X      Y      Z        X      Y      Z
     1   6     0.12   0.02  -0.00     0.00  -0.00  -0.05    -0.00  -0.05   0.00
     2   6    -0.13  -0.02   0.00     0.00   0.00  -0.03     0.05   0.02   0.00
     3   1    -0.36   0.09  -0.01     0.47  -0.16   0.04    -0.00   0.47  -0.36
     4   1    -0.18  -0.34   0.00    -0.00   0.00   0.70    -0.16  -0.21  -0.00
     5   1    -0.36   0.09   0.01    -0.47   0.16   0.04    -0.00   0.47   0.36
     6   1     0.51  -0.08   0.03     0.02   0.05   0.01    -0.13  -0.24  -0.20
     7   9     0.00   0.02   0.00    -0.00   0.00   0.00    -0.01   0.00  -0.00
     8   1     0.51  -0.08  -0.03    -0.02  -0.05   0.01    -0.13  -0.24   0.20
                     13                     14                     15
                      A                      A                      A
 Frequencies --   1502.1893              3016.8071              3042.1788
 Red. masses --      1.0884                 1.0577                 1.0361
 Frc consts  --      1.4471                 5.6716                 5.6497
 IR Inten    --      1.8353                41.9174                10.3574
  Atom  AN      X      Y      Z        X      Y      Z        X      Y      Z
     1   6     0.00  -0.02   0.00     0.00  -0.01  -0.00    -0.04  -0.02  -0.00
     2   6     0.01  -0.08   0.00     0.01   0.07   0.00     0.00  -0.00   0.00
     3   1     0.01   0.23  -0.17     0.00   0.02   0.03     0.03   0.33   0.47
     4   1    -0.09  -0.13   0.00    -0.02   0.03  -0.00     0.45  -0.37   0.00
     5   1     0.01   0.23   0.17     0.00   0.02  -0.03     0.03   0.33  -0.47
     6   1    -0.05   0.49   0.39    -0.06  -0.40   0.58    -0.00   0.01  -0.01
     7   9     0.00  -0.01  -0.00    -0.00   0.00  -0.00    -0.00   0.00   0.00
     8   1    -0.05   0.49  -0.39    -0.06  -0.40  -0.58    -0.00   0.01   0.01
                     16                     17                     18
                      A                      A                      A
 Frequencies --   3062.4498              3128.0790              3130.6773
 Red. masses --      1.1074                 1.1017                 1.1042
 Frc consts  --      6.1194                 6.3514                 6.3763
 IR Inten    --     26.4935                17.4699                22.8588
  Atom  AN      X      Y      Z        X      Y      Z        X      Y      Z
     1   6    -0.00  -0.00   0.02    -0.05   0.08   0.00    -0.00   0.00  -0.09
     2   6     0.00   0.00  -0.09    -0.00   0.01   0.00    -0.00   0.00  -0.02
     3   1    -0.01  -0.08  -0.11    -0.04  -0.23  -0.34     0.05   0.41   0.56
     4   1     0.00  -0.00   0.00     0.63  -0.51   0.00     0.00  -0.00  -0.02
     5   1     0.01   0.08  -0.11    -0.04  -0.23   0.34    -0.05  -0.41   0.56
     6   1    -0.07  -0.40   0.56    -0.00  -0.03   0.04    -0.02  -0.07   0.10
     7   9    -0.00   0.00   0.00     0.00  -0.00  -0.00     0.00  -0.00   0.00
     8   1     0.07   0.40   0.56    -0.00  -0.03  -0.04     0.02   0.07   0.10

 -------------------
 - Thermochemistry -
 -------------------
 Temperature   298.150 Kelvin.  Pressure   1.00000 Atm.
 Atom     1 has atomic number  6 and mass  12.00000
 Atom     2 has atomic number  6 and mass  12.00000
 Atom     3 has atomic number  1 and mass   1.00783
 Atom     4 has atomic number  1 and mass   1.00783
 Atom     5 has atomic number  1 and mass   1.00783
 Atom     6 has atomic number  1 and mass   1.00783
 Atom     7 has atomic number  9 and mass  18.99840
 Atom     8 has atomic number  1 and mass   1.00783
 Molecular mass:    48.03753 amu.
 Principal axes and moments of inertia in atomic units:
                           1         2         3
     Eigenvalues --    49.09279 189.58118 216.10216
           X            0.99884   0.04807  -0.00000
           Y           -0.04807   0.99884   0.00000
           Z            0.00000  -0.00000   1.00000
 This molecule is an asymmetric top.
 Rotational symmetry number  1.
 Rotational temperatures (Kelvin)      1.76429     0.45687     0.40080
 Rotational constants (GHZ):          36.76184     9.51962     8.35133
 Zero-point vibrational energy     177554.4 (Joules/Mol)
                                   42.43652 (Kcal/Mol)
 Warning -- explicit consideration of   2 degrees of freedom as
           vibrations may cause significant error
 Vibrational temperatures:    359.09   596.47  1143.88  1293.90  1577.85
          (Kelvin)           1636.23  1699.41  1860.16  1992.22  2035.92
                             2100.54  2124.11  2161.32  4340.51  4377.02
                             4406.18  4500.61  4504.35
 
 Zero-point correction=                           0.067627 (Hartree/Particle)
 Thermal correction to Energy=                    0.071483
 Thermal correction to Enthalpy=                  0.072428
 Thermal correction to Gibbs Free Energy=         0.042486
 Sum of electronic and zero-point Energies=           -178.966765
 Sum of electronic and thermal Energies=              -178.962909
 Sum of electronic and thermal Enthalpies=            -178.961965
 Sum of electronic and thermal Free Energies=         -178.991906
 
                     E (Thermal)             CV                S
                      KCal/Mol        Cal/Mol-Kelvin    Cal/Mol-Kelvin
 Total                   44.856             11.680             63.017
 Electronic               0.000              0.000              0.000
 Translational            0.889              2.981             37.533
 Rotational               0.889              2.981             22.224
 Vibrational             43.079              5.718              3.260
 Vibration     1          0.662              1.763              1.734
 Vibration     2          0.778              1.439              0.911
                       Q            Log10(Q)             Ln(Q)
 Total Bot       0.286862D-19        -19.542327        -44.997870
 Total V=0       0.366320D+12         11.563860         26.626772
 Vib (Bot)       0.136542D-30        -30.864733        -71.068674
 Vib (Bot)    1  0.782154D+00         -0.106708         -0.245704
 Vib (Bot)    2  0.425299D+00         -0.371306         -0.854963
 Vib (V=0)       0.174363D+01          0.241454          0.555968
 Vib (V=0)    1  0.142831D+01          0.154823          0.356494
 Vib (V=0)    2  0.115641D+01          0.063113          0.145324
 Electronic      0.100000D+01          0.000000          0.000000
 Translational   0.130865D+08          7.116825         16.387095
 Rotational      0.160539D+05          4.205582          9.683710
 ***** Axes restored to original set *****
 -------------------------------------------------------------------
 Center     Atomic                   Forces (Hartrees/Bohr)
 Number     Number              X              Y              Z
 -------------------------------------------------------------------
      1        6          -0.000009220   -0.000011996    0.000000144
      2        6           0.000002019   -0.000017864    0.000000206
      3        1          -0.000000533    0.000004728   -0.000000864
      4        1          -0.000001100   -0.000000828    0.000000008
      5        1          -0.000000534    0.000004746    0.000000753
      6        1          -0.000000034    0.000002316    0.000001596
      7        9           0.000009437    0.000016621   -0.000000195
      8        1          -0.000000036    0.000002278   -0.000001648
 -------------------------------------------------------------------
 Cartesian Forces:  Max     0.000017864 RMS     0.000006397

 ----------------------------------------------------------------------

 Electric dipole moment (input orientation):
 (Debye = 10**-18 statcoulomb cm , SI units = C m)
                  (au)            (Debye)         (10**-30 SI)
   Tot        0.715039D+00      0.181745D+01      0.606235D+01
   x         -0.347367D+00     -0.882918D+00     -0.294510D+01
   y         -0.624951D+00     -0.158847D+01     -0.529855D+01
   z          0.734839D-02      0.186777D-01      0.623023D-01

 Dipole polarizability, Alpha (input orientation).
 (esu units = cm**3 , SI units = C**2 m**2 J**-1)
 Alpha(0;0):
               (au)            (10**-24 esu)      (10**-40 SI)
   iso        0.267329D+02      0.396140D+01      0.440765D+01
   aniso      0.194695D+01      0.288509D+00      0.321009D+00
   xx         0.279619D+02      0.414353D+01      0.461029D+01
   yx         0.313747D-01      0.464925D-02      0.517299D-02
   yy         0.264783D+02      0.392368D+01      0.436568D+01
   zx        -0.624090D-03     -0.924806D-04     -0.102899D-03
   zy        -0.842362D-02     -0.124825D-02     -0.138887D-02
   zz         0.257584D+02      0.381699D+01      0.424698D+01

 ----------------------------------------------------------------------

 Dipole orientation:
     6         -1.69943654          0.95768437         -1.07513148
     6          0.51053035         -0.25459533         -2.37031337
     1         -1.84923997          2.94685007         -1.59652335
     1         -1.48182026          0.83831093          0.97266873
     1         -3.45747307          0.01506616         -1.59652311
     1          2.28920568          0.67951502         -1.87028288
     9          0.22582146         -0.09841794         -4.94994429
     1          0.67859963         -2.25659456         -1.87028293

 Electric dipole moment (dipole orientation):
 (Debye = 10**-18 statcoulomb cm , SI units = C m)
                  (au)            (Debye)         (10**-30 SI)
   Tot        0.715039D+00      0.181745D+01      0.606235D+01
   x          0.000000D+00      0.000000D+00      0.000000D+00
   y          0.000000D+00      0.000000D+00      0.000000D+00
   z          0.715039D+00      0.181745D+01      0.606235D+01

 Dipole polarizability, Alpha (dipole orientation).
 (esu units = cm**3 , SI units = C**2 m**2 J**-1)
 Alpha(0;0):
               (au)            (10**-24 esu)      (10**-40 SI)
   iso        0.267329D+02      0.396140D+01      0.440765D+01
   aniso      0.194695D+01      0.288509D+00      0.321009D+00
   xx         0.271626D+02      0.402508D+01      0.447850D+01
   yx        -0.770337D+00     -0.114152D+00     -0.127011D+00
   yy         0.261808D+02      0.387960D+01      0.431664D+01
   zx        -0.566812D+00     -0.839928D-01     -0.934546D-01
   zy         0.310925D+00      0.460744D-01      0.512646D-01
   zz         0.268552D+02      0.397953D+01      0.442782D+01

 ----------------------------------------------------------------------
 Unable to Open any file for archive entry.
 1\1\GINC-GADI-CPU-CLX-1411\Freq\RM06\def2TZVP\C2H5F1\PK8622\23-Jun-202
 0\0\\# M06/Def2TZVP Freq=(anharmonic,ReadAnharm) Opt=CalcAll\\Anharmon
 ic frequencies for fluoroethane using VPT2\\0,1\C,-0.625823989,0.99880
 34044,0.0002051216\C,0.8730208875,0.9498844317,0.0006022504\H,-0.99493
 23236,1.5299784595,0.8788592851\H,-1.037456723,-0.0121193847,0.0120744
 724\H,-0.9951388237,1.5092878217,-0.8905435866\H,1.2580895632,0.443591
 6034,0.8926055766\F,1.3859786145,2.2264530683,-0.0143851486\H,1.257882
 7942,0.4228705957,-0.8794079713\\Version=ES64L-G16RevC.01\State=1-A\HF
 =-179.0343924\RMSD=1.753e-09\RMSF=6.397e-06\ZeroPoint=0.0676269\Therma
 l=0.0714834\ETot=-178.962909\HTot=-178.9619648\GTot=-178.991906\Dipole
 =-0.3473668,-0.6249506,0.0073484\DipoleDeriv=-0.1387997,-0.0592222,0.0
 007158,0.0388044,0.048845,0.0001309,-0.0004305,0.0001423,0.060423,0.63
 14256,0.2630067,-0.0031009,0.2664662,0.9165437,-0.0059149,-0.0031414,-
 0.0059145,0.4134422,0.0071127,0.0168737,0.022948,0.0510369,0.0336929,-
 0.0716012,0.0571727,-0.0752839,-0.050729,0.0335645,-0.0299318,0.000355
 3,-0.0707872,-0.0934568,0.0020262,0.0008331,0.0020214,0.0790879,0.0070
 938,0.0163496,-0.0233504,0.0497023,0.0370803,0.0695358,-0.0583646,0.07
 32264,-0.0540976,-0.0297072,0.026855,-0.0622975,0.0003067,-0.0306332,0
 .0407399,-0.0789571,0.1007291,-0.0914961,-0.4810154,-0.2622117,0.00309
 1,-0.3376725,-0.878098,0.0071694,0.0039734,0.0071606,-0.268442,-0.0296
[...]
 048234,0.00007102,-0.00003335,0.00037264,-0.00032532,-0.00011187,0.041
 68465,-0.04005504,-0.00255180,0.00102177,-0.00613279,0.06458065,-0.097
 26190,0.14460013,0.00059412,-0.00014860,-0.00029140,0.00018871,-0.0001
 4406,0.00002317,-0.00204761,0.00003532,-0.00010374,-0.07551482,0.10460
 428,-0.11560707,0.00165989,0.00029522,-0.00000358,-0.00212399,-0.00588
 966,0.00007230,0.00019957,0.00012203,-0.00024304,0.00011524,0.00019687
 ,-0.00000236,0.00019955,0.00012766,0.00024000,-0.00032116,-0.00209914,
 0.00256422,0.00059247,0.00194861,0.00045360,-0.00001006,-0.01677702,0.
 00235584,0.00027777,-0.00001580,-0.00007829,0.00021654,0.00024152,0.00
 020217,-0.00000445,-0.00001691,-0.00008802,-0.00021871,0.00259691,0.00
 138859,0.01051073,0.00940529,-0.00540104,-0.00002300,-0.00000990,-0.00
 039069,0.00019949,0.00027628,0.02590814,0.00004557,0.00019550,-0.00018
 068,-0.00000284,-0.00000441,-0.00017541,-0.00004528,-0.00019767,-0.000
 17106,-0.00100518,-0.00129406,-0.01007225,-0.00011082,0.00000246,-0.00
 506771,-0.00045083,-0.00066304,-0.00140145,0.02014516,-0.04857799,-0.0
 8656010,0.00017577,0.00053587,0.00044914,0.00037156,-0.00008958,-0.000
 33843,-0.00010642,-0.00017514,0.00022430,0.00191957,0.00293836,0.01218
 653,-0.00032156,0.00261740,0.00094205,-0.02173326,-0.00001270,-0.00064
 307,-0.00076645,-0.04398105,0.04638299,0.12438113,0.00042041,-0.000323
 43,0.00011690,-0.00048661,0.00007513,0.00003223,0.00015587,-0.00020928
 ,0.00008814,0.00264822,-0.00146141,-0.01861756,-0.00215826,0.00116716,
 0.00103179,0.04341412,-0.04498810,0.00255139,-0.00114997,-0.00609130,-
 0.06354046,0.09957070,0.13945138,0.00203827,-0.00003032,-0.00010623,-0
 .00017747,0.00014287,0.00001917,-0.00059797,0.00014669,-0.00029686,-0.
 01225500,0.01836050,-0.01241604,-0.00251673,-0.01077429,-0.00985029,0.
 07449796,-0.10626619,-0.11070983,-0.00887727,0.00550399,0.00065661,-0.
 00006316,-0.00001457,-0.00050032,0.01494938,-0.01188706,0.00013668,-0.
 16397104,0.00148342,0.00246058,-0.00009356,-0.56941595,0.17794907,-0.0
 0001988,-0.00009188,-0.00551322,0.00688544,0.01902979,1.79924277,0.000
 96927,0.00175311,0.00313850,0.00009765,-0.00089330,0.00059749,-0.00189
 556,0.00064825,0.00037397,-0.00325355,0.00002870,0.00029906,0.00041716
 ,-0.00063696,-0.00014183,0.00188840,-0.00295910,-0.00270761,0.00052982
 ,-0.00016013,-0.00016840,-0.00202505,0.00296397,0.00322203,0.00019642,
 -0.00253751,0.00002972,-0.00325824,0.00117904,-0.00001347,0.00001569,-
 0.00009374,0.00006061,0.00038834,-0.00275581,-0.00457303,0.00006453,0.
 00001113,-0.00005813,-0.00000102,0.00002417,0.00006825,-0.00001329,0.0
 0257654,0.00433205,0.00003236,0.00006465,0.00091637,0.00000024,-0.0000
 0111,-0.00013811,0.00000598,0.00003977,-0.00002469,-0.00003018,-0.0000
 6101,-0.00086353,0.00096899,0.00167995,-0.00317978,0.00009798,-0.00090
 721,-0.00057616,0.00007746,0.00007482,-0.00002736,0.00001566,0.0000242
 6,-0.00000671,-0.00189594,0.00060474,0.00051786,0.00317836,0.00001608,
 0.00029285,-0.00042795,0.00007543,-0.00003959,0.00004464,-0.00009505,0
 .00006811,-0.00004209,-0.00059021,-0.00027948,-0.00190399,0.00288346,-
 0.00284932,-0.00053037,0.00014961,-0.00016193,0.00002543,-0.00003938,0
 .00016702,-0.00005844,0.00001110,-0.00002413,0.00204090,-0.00288259,0.
 00335739,-0.00381593,0.00187607,-0.00433528,0.07620245,0.28129663,-0.4
 9158366,0.00113926,0.00019814,0.00015542,0.00104983,-0.00001559,0.0000
 0227,-0.00020804,-0.00004214,0.00041991,-0.08241052,-0.00227745,-0.000
 09140,-0.00286618,0.27732216,-0.08324838,0.64543072,0.00012441,-0.0000
 7545,0.00014792,-0.00046849,0.00007909,0.00012699,-0.00046642,-0.00008
 558,-0.00011621,-0.27043062,0.07184444,0.00809566,-0.00269300,0.005758
 20,-0.47809329,0.62797897,-0.90864877,-0.00055920,0.00005604,-0.000297
 39,-0.00011069,0.00013543,-0.00003417,0.00116496,0.00001998,-0.0003301
 1,0.48158507,-0.63018622,0.90942325,-0.00057433,0.00163409,-0.00001902
 ,-0.00054617,-0.00530704,0.00006157,-0.00019537,-0.00016727,-0.0001629
 6,0.00054243,0.00015097,-0.00000183,-0.00019538,-0.00016336,0.00016688
 ,-0.00186992,0.00232712,-0.00207800,0.00470904,-0.00074148,0.00061354,
 -0.00001556,0.01565316,0.01577515,-0.00025564,0.00004669,-0.00040096,-
 0.00013459,-0.00009500,0.00001076,0.00000221,0.00004737,-0.00039381,0.
 00014704,-0.00699141,-0.00076834,-0.01253007,-0.00084842,-0.01424216,0
 .00000869,-0.00001590,-0.00072996,-0.00018362,-0.00025337,-0.00595831,
 -0.00002936,-0.00015827,0.00014088,0.00000108,0.00000218,0.00019629,0.
 00002834,0.00017084,0.00013368,0.00361519,0.00515732,0.00216569,0.0000
 0944,0.00019042,0.00205982,-0.00381653,0.00197736,0.00429235,0.0764279
 9,0.29256441,0.48464867,-0.00020840,-0.00005195,-0.00041888,0.00104986
 ,-0.00001567,-0.00000214,0.00113928,0.00019450,-0.00016033,0.00991287,
 -0.00613071,-0.01000451,-0.00187030,-0.00707090,-0.00344975,-0.0826347
 7,-0.00246567,0.00004186,0.00300052,0.28827178,-0.11347020,-0.66410117
 ,-0.00049355,-0.00008345,0.00011057,-0.00046579,0.00007289,-0.00012941
 ,0.00013744,-0.00008037,-0.00015302,-0.00589109,0.01234561,0.01721886,
 0.00237391,-0.00059417,-0.00509322,-0.28146704,0.10176783,-0.00803809,
 0.00282632,0.00562585,0.47125511,-0.64665019,-0.87865402,-0.00115378,-
 0.00002573,-0.00033184,0.00012136,-0.00013792,-0.00002801,0.00055582,-
 0.00006120,-0.00029259,0.01014107,-0.01769434,-0.00803670,0.00202392,0
 .01259619,0.00199193,-0.47490541,0.64914686,0.87972538,-0.17468975,0.0
 8680452,1.13092023,-0.00085542,0.00062775,1.18553314,0.01469328,0.0002
 8716,-0.00000496,-0.00913972,-0.00052872,-0.00166877,0.00002139,0.0010
 6637,-0.00799399,0.00000433,0.00002133,0.00016200,-0.00001263,0.000021
 32,-0.00616639,0.07301336,0.18476508,0.31958544,-0.00301878,0.00152792
 ,0.00344152,-0.08201339,0.17966629,-0.11227213,-0.49897375,-0.00378533
 ,0.00103688,0.00166037,-0.17863347,0.10431034,0.30836602,-0.49764801,-
 0.67395503,-0.00513385,0.00134268,0.00239949,-0.30816787,0.50206795,0.
 66966318,0.01817101,-0.44860755,0.00526531,-0.00279678,-0.00441525,0.0
 0005192,0.00506040,0.00748274,-0.00160152,-0.02614887,-0.43736718,-0.9
 2684127,0.01306090,0.00510616,0.00524459,-0.00006128,-0.00303499,-0.00
 178369,0.00530599,0.43728093,0.92489047,0.00513395,0.01306233,0.185583
 21,-0.00005937,-0.00006011,0.00006150,-0.00846709,-0.01645843,0.005154
 14,-0.00513298,-0.01314977,-0.19514027,0.07286682,0.17735416,-0.323997
 85,-0.00301780,0.00144649,-0.00347471,0.00456624,-0.00496615,0.0059656
 1,0.00506272,-0.00283716,0.00853560,-0.08186999,0.17251944,-0.08928112
 ,0.48525962,-0.00366473,0.00096754,-0.00162599,-0.00510705,0.00874235,
 -0.01184241,0.00752210,-0.00151866,0.01661258,-0.17149227,0.08114509,-
 0.31266205,0.48393254,-0.69679841,0.00522227,-0.00130954,0.00246845,-0
 .00584980,0.01156753,-0.00307761,0.00142602,-0.00514927,0.00488718,0.3
 1244118,-0.48826436,0.69268319,-0.00094437,0.00007221,0.00009554,0.000
 78513,0.00095608,-0.00143378,0.00091783,0.00008743,0.00028851,0.000720
 07,-0.00034066,0.00000980,-0.00011259,-0.00035883,0.00047700,-0.001312
 89,0.00043639,-0.00008941,-0.00022333,-0.00013646,0.00061540,0.0010204
 2,-0.00023541,-0.00012238,-0.00007440,0.00016552,-0.00010789,0.0002568
 8,0.00001759,0.00001521,-0.00006878,-0.00022713,-0.00035635,0.00023180
 ,0.00015124,-0.00014320,-0.00050072,0.00081881,0.00015447,-0.00018429,
 0.00004791,-0.00015288,-0.00017786,-0.00002176,-0.00010347,0.00013148,
 -0.00006518,-0.00013084,0.00058699,-0.00083526,0.00036013,-0.00216618,
 -0.00074525,0.00000903,0.00170851,-0.00104206,0.00001221,0.00158705,0.
 00051835,0.00075163,-0.00078867,0.00153369,-0.00001792,0.00158688,0.00
 050061,-0.00076389,-0.00004984,-0.00005192,-0.00011441,-0.00182787,-0.
 00196141,-0.00067990,0.00000542,0.00125148,0.00122583,-0.00000572,0.00
 070341,0.00007038,0.00078292,0.00040192,0.00022985,-0.00000678,0.00070
 834,0.00005140,-0.00078185,-0.00021984,0.00014314,-0.00004706,-0.00066
 426,-0.00118809,0.00002320,0.00000531,-0.00023685,-0.00001472,-0.00000
 564,0.00072300,-0.00022606,0.00002666,0.00010246,-0.00000464,-0.000006
 88,-0.00034427,0.00020920,-0.00002557,0.00012149,0.00000346,-0.0001291
 3,-0.00010425,0.00000780,0.00001189,-0.00015316,-0.00094417,0.00006967
 ,-0.00009708,0.00078616,0.00098918,0.00141114,-0.00011272,-0.00036987,
 -0.00046853,0.00072011,-0.00034079,-0.00000199,0.00091772,0.00008073,-
 0.00029073,-0.00000333,0.00003142,0.00002701,-0.00004984,-0.00021964,0
 .00000175,-0.00131394,0.00043069,-0.00008763,0.00022201,-0.00012466,0.
 00057252,-0.00103045,0.00001450,0.00001825,0.00006529,0.00016959,-0.00
 011340,-0.00025670,-0.00023100,-0.00012180,0.00007375,0.00003075,-0.00
 009772,-0.00004869,-0.00004916,0.00014742,0.00012336,-0.00024070,-0.00
 031764,-0.00024183,-0.00015249,-0.00014487,0.00050397,-0.00082889,0.00
 019748,-0.00013186,0.00006177,-0.00013376,0.00017375,0.00002208,-0.000
 09802,0.00018950,-0.00004869,-0.00015345,-0.00002751,0.00005360,0.0001
 2004,0.00011554,0.00004118,-0.00010836,-0.00058157,0.00085144,0.000320
 95,-0.02154476,-0.02112833,0.01013042,0.00025797,0.00070634,0.07033892
 ,0.02577080,-0.00918175,0.00010245,-0.14804506,0.00863056,-0.00789255,
 -0.00011115,-0.65195673,0.24718584,-0.00010610,-0.00010893,-0.01729817
 ,0.00783962,0.01697416,1.69227337,0.00333351,0.01286091,0.02163309,0.0
 0046823,0.00021055,0.00174090,-0.00424264,0.01136603,-0.00516734,-0.03
 007439,0.00095896,-0.00022590,0.00108418,-0.01170852,0.00573582,0.0200
 2166,-0.02964129,-0.03447333,0.00019691,0.00025160,0.00030099,-0.02030
 562,0.02961240,0.03484604,-0.00072171,-0.00003179,0.00000029,-0.001215
 28,-0.00072725,0.00000859,0.00012902,-0.00000656,0.00001784,0.00037888
 ,0.00042917,-0.00022593,-0.00000971,-0.00038436,-0.00006017,0.00000063
 ,-0.00026106,-0.00006878,0.00007105,-0.00003375,0.00039718,-0.00000500
 ,-0.00000951,-0.00105130,0.00000464,0.00000074,-0.00000257,-0.00012636
 ,0.00003135,0.00013982,0.00000051,0.00000138,0.00050892,0.00332462,0.0
 1235827,-0.02193721,0.00046837,0.00016950,-0.00174505,0.00003370,0.000
 00710,0.00008538,0.00012903,-0.00025782,0.00013228,-0.00423442,0.01090
 164,-0.00378703,0.02935444,0.00095372,-0.00025679,-0.00107136,0.000005
 08,-0.00020639,-0.00002552,-0.00000690,-0.00007052,-0.00002659,-0.0112
 3730,0.00436632,-0.02029107,0.02892079,-0.03584270,-0.00021927,-0.0002
 3852,0.00033233,-0.00008572,0.00003204,0.00005308,-0.00001770,-0.00006
 608,0.00014194,0.02058348,-0.02889747,0.03620453,-0.00407076,0.0020620
 0,-0.00116717,0.06428950,0.31463314,-0.52107220,0.00034297,-0.00026949
 ,0.00016869,0.00041229,0.00012741,0.00017018,0.00011195,-0.00016108,0.
 00015437,-0.05702493,-0.00350716,0.00320248,-0.00450440,0.31056135,-0.
 11534349,0.69016276,0.00020813,0.00042244,0.00017858,0.00032671,-0.000
 02494,-0.00010186,-0.00141364,-0.00009108,0.00026494,-0.31120579,0.120
 25709,0.00518970,-0.00012674,0.00873762,-0.51867446,0.69632939,-0.8476
 7556,-0.00096522,0.00007683,-0.00064269,0.00059841,0.00009567,-0.00002
 236,0.00171268,0.00051246,-0.00037712,0.51802430,-0.68658443,0.8345839
 3,-0.00202031,0.00097214,-0.00001092,-0.00626728,0.00247638,-0.0000295
 7,-0.00017633,-0.00018276,-0.00003415,0.00047566,0.00025704,-0.0000030
 6,-0.00017632,-0.00018186,0.00003847,0.00064227,0.00176201,-0.00549709
 ,0.00687955,-0.00306524,0.00042607,0.00000672,0.02661000,0.02475041,-0
 .00044222,0.00013831,-0.00038045,-0.00017597,0.00016687,0.00007795,0.0
 0000267,0.00014327,-0.00037036,0.00018767,-0.00846307,-0.00110056,-0.0
 1164643,-0.00699266,-0.02253746,0.00003624,0.00000619,0.00096179,-0.00
 031192,-0.00043975,-0.01283194,-0.00021180,-0.00024374,0.00013443,-0.0
 0000196,0.00000267,0.00030789,0.00020857,0.00025559,0.00012428,0.00340
 828,0.00171343,0.00351830,0.00008134,0.00031681,0.00450236,-0.00407140
 ,0.00208854,0.00112149,0.06453071,0.32656384,0.51336381,0.00011154,-0.
 00016475,-0.00015070,0.00041211,0.00012337,-0.00017319,0.00034307,-0.0
 0027331,-0.00016256,-0.00470330,0.00326840,-0.00038831,0.00064275,-0.0
 0853749,-0.00320876,-0.05726549,-0.00362667,0.00331387,0.00463215,0.32
 243881,-0.14815735,-0.70659921,-0.00145340,-0.00010940,-0.00027085,0.0
 0031266,-0.00002480,0.00010183,0.00023062,0.00041586,-0.00020337,0.003
 27688,-0.00732195,0.00134326,0.00188970,-0.00086558,-0.00161122,-0.323
 06860,0.15274934,-0.00510339,0.00025316,0.00862717,0.51106203,-0.71276
 646,-0.81509845,-0.00167927,-0.00051866,-0.00035835,-0.00060598,-0.000
 09562,-0.00002234,0.00095987,-0.00010155,-0.00063634,0.00031355,-0.001
 12903,0.00187788,0.00545497,0.01175075,0.00328292,-0.51040178,0.702607
 41,0.80232751,-0.07552090,0.81565291,1.92185371,-0.00948094,-0.0186742
 6,0.33485854,0.01596949,-0.01154555,0.00013427,-0.00823135,0.00539931,
 -0.01580288,0.00008814,-0.00026560,-0.00370451,-0.00006730,0.00008305,
 -0.00871726,0.00000517,0.00010822,0.00537457,0.02703432,0.10177041,0.1
 9541903,-0.00099402,-0.00072126,0.00074990,-0.03071120,0.09884952,-0.0
 1856804,-0.25139952,0.00111669,0.00274876,-0.00068020,-0.10335396,0.00
 891613,0.18814245,-0.24773664,-0.38500645,-0.00359404,0.00137645,0.003
 24956,-0.19273256,0.25237459,0.38734386,0.00459086,-1.00430396,0.01179
 760,-0.00698270,-0.00418271,0.00005042,-0.00093283,0.00328724,0.002667
 07,0.00342010,-1.01351548,-1.88037682,0.02744516,0.00638395,0.01437263
 ,-0.00013457,0.00211553,0.00022579,-0.00331047,1.00092425,1.86560319,0
 .01190227,0.02744200,0.45619467,-0.00007242,-0.00013160,0.00289005,0.0
 0186767,-0.00267696,-0.00446626,-0.01175636,-0.02720128,-0.45040935,0.
 02694984,0.09723683,-0.19785626,-0.00099438,-0.00074283,-0.00073161,0.
 00496893,0.00018899,0.00498568,-0.00093496,0.00207141,-0.00191762,-0.0
 3062383,0.09448062,-0.00710536,0.24255848,0.00120378,0.00274169,0.0006
 9294,0.00007251,0.00670432,-0.00291342,0.00322645,0.00036566,0.0025639
 9,-0.09888315,-0.00267159,-0.19050611,0.23889636,-0.39641001,0.0035639
 6,-0.00137459,0.00326408,-0.00499092,0.00273855,-0.00075846,-0.0027465
 1,0.00319465,-0.00460377,0.19520973,-0.24325057,0.39887372,-0.00029738
 ,0.00149630,-0.00102057,-0.00009059,0.00189017,-0.00276612,0.00021490,
 -0.00036677,0.00031728,0.00047356,-0.00111803,0.00054192,0.00039610,-0
 .00029866,0.00065119,-0.00084079,-0.00008057,0.00019736,0.00026592,0.0
 0109610,0.00011771,0.00252651,-0.00007331,0.00011549,-0.00008300,0.000
 43840,-0.00025806,0.00004774,0.00005691,-0.00033016,-0.00006728,-0.001
 41806,0.00006396,0.00010083,-0.00008434,0.00006126,-0.00187276,0.00270
 487,-0.00368471,-0.00005672,0.00001490,-0.00011565,-0.00013953,0.00009
 993,0.00005030,0.00000338,0.00012744,-0.00026261,0.00215497,-0.0027500
 2,0.00387879,0.00156891,-0.00182796,0.00001949,0.00141360,-0.00332764,
 0.00003834,0.00002329,0.00059443,0.00086065,-0.00010691,0.00426949,-0.
 00005043,0.00002412,0.00057164,-0.00087154,0.00009111,0.00005469,-0.00
 016146,-0.00310612,-0.00070675,-0.00039477,-0.00001541,0.00087372,-0.0
 0046032,0.00001652,0.00013309,0.00019114,0.00022535,0.00017001,0.00033
 075,-0.00000342,0.00014380,0.00017979,-0.00021587,-0.00011035,0.000000
 25,-0.00018854,-0.00039535,0.00014230,0.00000493,-0.00001122,-0.001044
 33,-0.00000822,0.00002650,0.00118523,-0.00025121,-0.00024523,0.0000146
 2,-0.00000090,0.00000095,0.00029100,0.00024776,0.00024430,0.00001150,0
 .00009255,0.00013656,-0.00007931,0.00000236,-0.00001446,-0.00029498,-0
 .00029515,0.00152102,0.00098738,-0.00009004,0.00195055,0.00272120,0.00
 039662,-0.00031613,-0.00064653,0.00047287,-0.00113112,-0.00051501,0.00
 021417,-0.00037319,-0.00030981,0.00005310,-0.00007416,-0.00002870,0.00
 009202,-0.00010818,-0.00008728,-0.00084360,-0.00007956,0.00019681,-0.0
 0026851,0.00113692,-0.00001308,-0.00261247,0.00005699,-0.00033357,0.00
 006715,0.00044031,-0.00026313,-0.00004047,-0.00007195,0.00011565,0.000
 07874,-0.00007460,0.00009346,0.00007577,0.00006070,0.00001088,-0.00013
 740,-0.00146880,0.00019299,-0.00009613,0.00008504,0.00006357,0.0018440
 5,-0.00279799,-0.00356151,-0.00000518,-0.00012613,-0.00026121,0.000128
 20,-0.00009436,0.00005336,0.00005893,-0.00002316,-0.00011443,0.0000287
 8,-0.00007642,0.00015193,0.00016260,0.00019584,-0.00008369,-0.00212125
 ,0.00283719,0.00375196,-0.19939924,-0.65868977,0.30877036,0.00795277,0
 .02053238,2.05637406,0.02407582,0.01102482,-0.00013297,-0.01887432,-0.
 00863905,-0.00719962,-0.00007665,-0.02077256,0.00587299,0.00009631,-0.
 00007897,-0.01383955,0.00025033,0.00052448,0.05049723,0.09115706,0.330
 15850,0.54277673,-0.00541394,0.00271567,0.00182789,-0.08635572,0.32979
 322,-0.17225680,-0.80999239,-0.00537673,0.00333248,0.00372954,-0.32684
 428,0.17384734,0.54582131,-0.81150603,-0.99715340,-0.00627514,0.001758
 65,0.00738893,-0.54049816,0.80849182,0.98571646,-0.00445687,0.00288487
 ,-0.00003443,-0.00022088,0.00033385,-0.00000361,0.00239332,-0.00022711
 ,0.00008724,-0.00082129,0.01832053,0.00897289,-0.00025178,-0.00119646,
 0.00100127,0.00001821,-0.00722519,-0.00321739,0.00131621,-0.00343741,-
 0.00327781,-0.00021484,-0.00024985,-0.01244071,0.00001425,0.00001805,0
 .00255263,-0.00350758,-0.00177950,0.00538160,0.00004009,0.00002982,-0.
 00069372,0.09089988,0.31755300,-0.55059677,-0.00541221,0.00267150,-0.0
 0188746,-0.00342099,0.00162137,0.00006876,0.00239424,-0.00714120,0.003
 67613,-0.08610094,0.31711605,-0.13480062,0.78973176,-0.00522939,0.0032
 0652,-0.00363045,0.00161929,-0.00325420,-0.00009330,-0.00022840,-0.003
 20118,0.00198024,-0.31429240,0.13648892,-0.55363140,0.79124510,-1.0343
 2576,0.00640199,-0.00166147,0.00751377,-0.00010630,0.00016392,-0.00024
 576,-0.00008132,-0.00111374,0.00536515,0.54823763,-0.78853944,1.022792
 50,-0.00023698,-0.00009698,-0.00123743,0.00310836,0.01217902,-0.020553
 96,0.00032071,0.00036124,0.00118189,-0.00000720,0.00005141,0.00012253,
 0.00040768,-0.00096942,0.00130363,-0.00346894,0.00114495,-0.00044433,-
 0.00003342,0.01034658,-0.00331385,0.02587048,-0.00036950,0.00010078,-0
 .00021513,-0.00001131,-0.00009806,-0.00029936,0.00003647,0.00029669,0.
 00018097,-0.01123426,0.00403915,0.00038895,-0.00018690,0.00056486,-0.0
 1886956,0.02585471,-0.02783433,-0.00037412,-0.00006088,-0.00054847,0.0
 0003156,0.00010768,0.00002414,-0.00003882,0.00021207,-0.00052101,0.019
 04053,-0.02533719,0.02848083,-0.00180321,-0.00276622,0.00003263,-0.000
 38095,-0.00113872,0.00001354,0.00091218,0.00167200,0.00089500,0.000725
 91,0.00057982,-0.00000691,0.00091194,0.00165066,-0.00093403,0.00006376
 ,-0.00002613,-0.00020824,-0.00049334,-0.00018132,-0.00260338,0.0000333
 9,0.00042454,0.00163641,-0.00001477,-0.00009178,0.00116076,0.00044767,
 0.00069749,-0.00008619,-0.00000149,-0.00008815,0.00115702,-0.00047524,
 -0.00040344,0.00002776,-0.00050516,0.00004977,-0.00133835,0.00000237,0
 .00003380,0.00026166,-0.00000485,-0.00001474,0.00034216,-0.00015618,-0
 .00032177,-0.00002828,-0.00000824,-0.00000145,-0.00020873,0.00015807,0
 .00029371,-0.00002454,0.00017493,-0.00026288,-0.00008823,-0.00000072,0
 .00001347,-0.00014770,-0.00023646,-0.00006821,0.00123947,0.00311812,0.
 01265028,0.02025696,0.00040740,-0.00099971,-0.00128089,-0.00000724,0.0
 0004850,-0.00012367,0.00032041,0.00033360,-0.00119021,-0.00018738,0.00
 011320,0.00002969,0.00006374,-0.00040709,-0.00016537,-0.00347860,0.001
 13538,-0.00043851,0.00005671,0.01077920,-0.00453620,-0.02641853,0.0000
 3729,0.00028704,-0.00019988,-0.00001197,-0.00009353,0.00030209,-0.0003
 6058,0.00010685,0.00019990,0.00011243,-0.00060813,-0.00008433,-0.00002
 117,0.00004598,0.00025988,-0.01167058,0.00523650,-0.00041548,0.0002104
 8,0.00055884,0.01861595,-0.02640302,-0.02662084,0.00003773,-0.00023074
 ,-0.00051107,-0.00003129,-0.00010494,0.00001963,0.00038246,0.00004542,
 -0.00055435,-0.00003212,0.00009652,-0.00007779,0.00020873,0.00050213,-
 0.00010629,-0.01876598,0.02588415,0.02729188\\@
 The archive entry for this job was punched.


 AN AIRPLANE IS A COLLECTION OF SPARE PARTS
 FLYING IN CLOSE FORMATION.
 Job cpu time:       0 days  5 hours 12 minutes 37.5 seconds.
 Elapsed time:       0 days  1 hours 18 minutes 20.0 seconds.
 File lengths (MBytes):  RWF=     54 Int=      0 D2E=      0 Chk=     76 Scr=      1
 Normal termination of Gaussian 16 at Tue Jun 23 15:18:25 2020.
