 Entering Gaussian System, Link 0=g16
 Input=fluoromethane.gjf
 Output=fluoromethane.log
 Initial command:
 /apps/gaussian/g16c01/g16/l1.exe "/jobfs/7627943.gadi-pbs/Gau-57662.inp" -scrdir="/jobfs/7627943.gadi-pbs/"
 Entering Link 1 = /apps/gaussian/g16c01/g16/l1.exe PID=     57663.
  
 Copyright (c) 1988-2019, Gaussian, Inc.  All Rights Reserved.
  
 This is part of the Gaussian(R) 16 program.  It is based on
 the Gaussian(R) 09 system (copyright 2009, Gaussian, Inc.),
 the Gaussian(R) 03 system (copyright 2003, Gaussian, Inc.),
 the Gaussian(R) 98 system (copyright 1998, Gaussian, Inc.),
 the Gaussian(R) 94 system (copyright 1995, Gaussian, Inc.),
 the Gaussian 92(TM) system (copyright 1992, Gaussian, Inc.),
 the Gaussian 90(TM) system (copyright 1990, Gaussian, Inc.),
 the Gaussian 88(TM) system (copyright 1988, Gaussian, Inc.),
 the Gaussian 86(TM) system (copyright 1986, Carnegie Mellon
 University), and the Gaussian 82(TM) system (copyright 1983,
 Carnegie Mellon University). Gaussian is a federally registered
 trademark of Gaussian, Inc.
  
 This software contains proprietary and confidential information,
 including trade secrets, belonging to Gaussian, Inc.
  
 This software is provided under written license and may be
 used, copied, transmitted, or stored only in accord with that
 written license.
  
 The following legend is applicable only to US Government
 contracts under FAR:
  
                    RESTRICTED RIGHTS LEGEND
  
 Use, reproduction and disclosure by the US Government is
 subject to restrictions as set forth in subparagraphs (a)
 and (c) of the Commercial Computer Software - Restricted
 Rights clause in FAR 52.227-19.
  
 Gaussian, Inc.
 340 Quinnipiac St., Bldg. 40, Wallingford CT 06492
  
  
 ---------------------------------------------------------------
 Warning -- This program may not be used in any manner that
 competes with the business of Gaussian, Inc. or will provide
 assistance to any competitor of Gaussian, Inc.  The licensee
 of this program is prohibited from giving any competitor of
 Gaussian, Inc. access to this program.  By using this program,
 the user acknowledges that Gaussian, Inc. is engaged in the
 business of creating and licensing software in the field of
 computational chemistry and represents and warrants to the
 licensee that it is not a competitor of Gaussian, Inc. and that
 it will not use this program in any manner prohibited above.
 ---------------------------------------------------------------
  

 Cite this work as:
 Gaussian 16, Revision C.01,
 M. J. Frisch, G. W. Trucks, H. B. Schlegel, G. E. Scuseria, 
 M. A. Robb, J. R. Cheeseman, G. Scalmani, V. Barone, 
 G. A. Petersson, H. Nakatsuji, X. Li, M. Caricato, A. V. Marenich, 
 J. Bloino, B. G. Janesko, R. Gomperts, B. Mennucci, H. P. Hratchian, 
 J. V. Ortiz, A. F. Izmaylov, J. L. Sonnenberg, D. Williams-Young, 
 F. Ding, F. Lipparini, F. Egidi, J. Goings, B. Peng, A. Petrone, 
 T. Henderson, D. Ranasinghe, V. G. Zakrzewski, J. Gao, N. Rega, 
 G. Zheng, W. Liang, M. Hada, M. Ehara, K. Toyota, R. Fukuda, 
 J. Hasegawa, M. Ishida, T. Nakajima, Y. Honda, O. Kitao, H. Nakai, 
 T. Vreven, K. Throssell, J. A. Montgomery, Jr., J. E. Peralta, 
 F. Ogliaro, M. J. Bearpark, J. J. Heyd, E. N. Brothers, K. N. Kudin, 
 V. N. Staroverov, T. A. Keith, R. Kobayashi, J. Normand, 
 K. Raghavachari, A. P. Rendell, J. C. Burant, S. S. Iyengar, 
 J. Tomasi, M. Cossi, J. M. Millam, M. Klene, C. Adamo, R. Cammi, 
 J. W. Ochterski, R. L. Martin, K. Morokuma, O. Farkas, 
 J. B. Foresman, and D. J. Fox, Gaussian, Inc., Wallingford CT, 2019.
 
 ******************************************
 Gaussian 16:  ES64L-G16RevC.01  3-Jul-2019
                23-Jun-2020 
 ******************************************
 %NprocShared=4
 Will use up to    4 processors via shared memory.
 %chk=checkpoint.chk
 -------------------------------------------------------
 # M06/Def2TZVP Freq=(anharmonic,ReadAnharm) Opt=CalcAll
 -------------------------------------------------------
 1/10=4,18=20,19=15,26=3,38=1,80=1/1,3;
 2/9=110,12=2,17=6,18=5,40=1/2;
 3/5=44,7=101,11=2,25=1,30=1,71=2,74=-54,140=1/1,2,3;
 4//1;
 5/5=2,38=5/2;
 8/6=4,10=90,11=11/1;
 11/6=1,8=1,9=11,15=111,16=1/1,2,10;
 10/6=1/2;
 6/7=2,8=2,9=2,10=2,18=1,28=1/1;
 7/10=1,25=1/1,2,3,16;
 1/10=4,18=20,19=15,26=3,80=1/3(3);
 2/9=110/2;
 7/8=1,9=1,25=1,44=-1,71=2,72=1/16;
 99//99;
 2/9=110/2;
 3/5=44,7=101,11=2,25=1,30=1,71=2,74=-54,140=1/1,2,3;
 4/5=5,16=3,69=1/1;
 5/5=2,38=5/2;
 8/6=4,10=90,11=11/1;
 11/6=1,8=1,9=11,15=111,16=1/1,2,10;
 10/6=1/2;
 7/10=1,25=1/1,2,3,16;
 1/10=4,18=20,19=15,26=3,80=1/3(-8);
 2/9=110/2;
 6/7=2,8=2,9=2,10=2,18=1,19=2,28=1/1;
 7/8=1,9=1,25=1,44=-1,71=1,72=1/16;
 99//99;
 ---------------------------------------------------
 Anharmonic frequencies for fluoromethane using VPT2
 ---------------------------------------------------
 Symbolic Z-matrix:
 Charge =  0 Multiplicity = 1
 C                    -0.48347   1.09831  -0.05476 
 H                     0.6083    1.10236  -0.0416 
 F                    -0.9357    1.47471   1.1677 
 H                    -0.85389   0.09448  -0.27218 
 H                    -0.85389   1.80599  -0.79916 
 

 GradGradGradGradGradGradGradGradGradGradGradGradGradGradGradGradGradGrad
 Berny optimization.
 Initialization pass.
                           ----------------------------
                           !    Initial Parameters    !
                           ! (Angstroms and Degrees)  !
 --------------------------                            --------------------------
 ! Name  Definition              Value          Derivative Info.                !
 --------------------------------------------------------------------------------
 ! R1    R(1,2)                  1.0919         calculate D2E/DX2 analytically  !
 ! R2    R(1,3)                  1.3567         calculate D2E/DX2 analytically  !
 ! R3    R(1,4)                  1.0919         calculate D2E/DX2 analytically  !
 ! R4    R(1,5)                  1.0919         calculate D2E/DX2 analytically  !
 ! A1    A(2,1,3)              108.7487         calculate D2E/DX2 analytically  !
 ! A2    A(2,1,4)              110.1842         calculate D2E/DX2 analytically  !
 ! A3    A(2,1,5)              110.1844         calculate D2E/DX2 analytically  !
 ! A4    A(3,1,4)              108.7485         calculate D2E/DX2 analytically  !
 ! A5    A(3,1,5)              108.7485         calculate D2E/DX2 analytically  !
 ! A6    A(4,1,5)              110.1838         calculate D2E/DX2 analytically  !
 ! D1    D(2,1,4,3)            119.1052         calculate D2E/DX2 analytically  !
 ! D2    D(2,1,5,3)           -119.1054         calculate D2E/DX2 analytically  !
 ! D3    D(2,1,5,4)            121.79           calculate D2E/DX2 analytically  !
 ! D4    D(3,1,5,4)           -119.1047         calculate D2E/DX2 analytically  !
 --------------------------------------------------------------------------------
 Trust Radius=3.00D-01 FncErr=1.00D-07 GrdErr=1.00D-06 EigMax=2.50D+02 EigMin=1.00D-04
 Number of steps in this run=     24 maximum allowed number of steps=    100.
 GradGradGradGradGradGradGradGradGradGradGradGradGradGradGradGradGradGrad

                          Input orientation:                          
 ---------------------------------------------------------------------
 Center     Atomic      Atomic             Coordinates (Angstroms)
 Number     Number       Type             X           Y           Z
 ---------------------------------------------------------------------
      1          6           0       -0.483470    1.098310   -0.054760
      2          1           0        0.608300    1.102360   -0.041600
      3          9           0       -0.935700    1.474710    1.167700
      4          1           0       -0.853890    0.094480   -0.272180
      5          1           0       -0.853890    1.805990   -0.799160
 ---------------------------------------------------------------------
                    Distance matrix (angstroms):
                    1          2          3          4          5
     1  C    0.000000
     2  H    1.091857   0.000000
     3  F    1.356686   1.996243   0.000000
     4  H    1.091859   1.790807   1.996242   0.000000
     5  H    1.091858   1.790808   1.996241   1.790803   0.000000
 This structure is nearly, but not quite of a higher symmetry.
 Consider Symm=Loose if the higher symmetry is desired.
 Stoichiometry    CH3F
 Framework group  C1[X(CH3F)]
 Deg. of freedom     9
 Full point group                 C1      NOp   1
 Largest Abelian subgroup         C1      NOp   1
 Largest concise Abelian subgroup C1      NOp   1
                         Standard orientation:                         
 ---------------------------------------------------------------------
 Center     Atomic      Atomic             Coordinates (Angstroms)
 Number     Number       Type             X           Y           Z
 ---------------------------------------------------------------------
      1          6           0       -0.597337   -0.007942    0.165357
      2          1           0       -0.912575    1.012740    0.391153
      3          9           0        0.710068    0.009442   -0.196562
      4          1           0       -1.185319   -0.409418   -0.662443
      5          1           0       -0.708697   -0.640650    1.048212
 ---------------------------------------------------------------------
 Rotational constants (GHZ):         156.3634056          26.5926424          26.5926272
 Standard basis: def2TZVP (5D, 7F)
 There are    90 symmetry adapted cartesian basis functions of A   symmetry.
 There are    80 symmetry adapted basis functions of A   symmetry.
    80 basis functions,   126 primitive gaussians,    90 cartesian basis functions
     9 alpha electrons        9 beta electrons
       nuclear repulsion energy        37.8304370072 Hartrees.
 NAtoms=    5 NActive=    5 NUniq=    5 SFac= 1.00D+00 NAtFMM=   60 NAOKFM=F Big=F
 Integral buffers will be    131072 words long.
 Raffenetti 2 integral format.
 Two-electron integral symmetry is turned on.
 One-electron integrals computed using PRISM.
   1 Symmetry operations used in ECPInt.
 ECPInt:  NShTT=     595 NPrTT=    1764 LenC2=     595 LenP2D=    1627.
 LDataN:  DoStor=T MaxTD1= 6 Len=  172
 NBasis=    80 RedAO= T EigKep=  1.99D-03  NBF=    80
 NBsUse=    80 1.00D-06 EigRej= -1.00D+00 NBFU=    80
 ExpMin= 9.52D-02 ExpMax= 3.55D+04 ExpMxC= 1.21D+03 IAcc=3 IRadAn=         5 AccDes= 0.00D+00
 Harris functional with IExCor= 1009 and IRadAn=       5 diagonalized for initial guess.
 HarFok:  IExCor= 1009 AccDes= 0.00D+00 IRadAn=         5 IDoV= 1 UseB2=F ITyADJ=14
 ICtDFT=  3500011 ScaDFX=  1.000000  1.000000  1.000000  1.000000
 FoFCou: FMM=F IPFlag=           0 FMFlag=      100000 FMFlg1=           0
         NFxFlg=           0 DoJE=T BraDBF=F KetDBF=T FulRan=T
         wScrn=  0.000000 ICntrl=       500 IOpCl=  0 I1Cent=   200000004 NGrid=           0
         NMat0=    1 NMatS0=      1 NMatT0=    0 NMatD0=    1 NMtDS0=    0 NMtDT0=    0
 Petite list used in FoFCou.
 Keep R1 ints in memory in canonical form, NReq=8911030.
 Requested convergence on RMS density matrix=1.00D-08 within 128 cycles.
 Requested convergence on MAX density matrix=1.00D-06.
 Requested convergence on             energy=1.00D-06.
 No special actions if energy rises.
 Integral accuracy reduced to 1.0D-05 until final iterations.
 Initial convergence to 1.0D-05 achieved.  Increase integral accuracy.
 SCF Done:  E(RM06) =  -139.733183172     A.U. after   12 cycles
            NFock= 12  Conv=0.25D-08     -V/T= 2.0032
 DoSCS=F DFT=T ScalE2(SS,OS)=  1.000000  1.000000
 Range of M.O.s used for correlation:     1    80
 NBasis=    80 NAE=     9 NBE=     9 NFC=     0 NFV=     0
 NROrb=     80 NOA=     9 NOB=     9 NVA=    71 NVB=    71
   1 Symmetry operations used in ECPInt.
 ECPInt:  NShTT=     595 NPrTT=    1764 LenC2=     595 LenP2D=    1627.
 LDataN:  DoStor=T MaxTD1= 7 Len=  274
 Symmetrizing basis deriv contribution to polar:
 IMax=3 JMax=2 DiffMx= 0.00D+00
 G2DrvN: will do     6 centers at a time, making    1 passes.
 Calling FoFCou, ICntrl=  3107 FMM=F I1Cent=   0 AccDes= 0.00D+00.
 End of G2Drv F.D. properties file   721 does not exist.
 End of G2Drv F.D. properties file   722 does not exist.
 End of G2Drv F.D. properties file   788 does not exist.
          IDoAtm=11111
          Differentiating once with respect to electric field.
                with respect to dipole field.
          Differentiating once with respect to nuclear coordinates.
 Keep R1 ints in memory in canonical form, NReq=8901785.
          There are    18 degrees of freedom in the 1st order CPHF.  IDoFFX=6 NUNeed=     3.
     15 vectors produced by pass  0 Test12= 3.55D-15 5.56D-09 XBig12= 7.17D+00 1.53D+00.
 AX will form    15 AO Fock derivatives at one time.
     15 vectors produced by pass  1 Test12= 3.55D-15 5.56D-09 XBig12= 7.68D-01 2.53D-01.
     15 vectors produced by pass  2 Test12= 3.55D-15 5.56D-09 XBig12= 3.67D-03 1.41D-02.
     15 vectors produced by pass  3 Test12= 3.55D-15 5.56D-09 XBig12= 1.89D-05 1.05D-03.
     15 vectors produced by pass  4 Test12= 3.55D-15 5.56D-09 XBig12= 8.46D-08 7.44D-05.
     13 vectors produced by pass  5 Test12= 3.55D-15 5.56D-09 XBig12= 2.26D-10 4.51D-06.
      6 vectors produced by pass  6 Test12= 3.55D-15 5.56D-09 XBig12= 4.26D-13 1.55D-07.
      1 vectors produced by pass  7 Test12= 3.55D-15 5.56D-09 XBig12= 1.04D-15 1.27D-08.
 InvSVY:  IOpt=1 It=  1 EMax= 1.55D-15
 Solved reduced A of dimension    95 with    15 vectors.
 Isotropic polarizability for W=    0.000000       14.98 Bohr**3.
 End of Minotr F.D. properties file   721 does not exist.
 End of Minotr F.D. properties file   722 does not exist.
 End of Minotr F.D. properties file   788 does not exist.

 **********************************************************************

            Population analysis using the SCF Density.

 **********************************************************************

 Orbital symmetries:
       Occupied  (A) (A) (A) (A) (A) (A) (A) (A) (A)
       Virtual   (A) (A) (A) (A) (A) (A) (A) (A) (A) (A) (A) (A)
                 (A) (A) (A) (A) (A) (A) (A) (A) (A) (A) (A) (A)
                 (A) (A) (A) (A) (A) (A) (A) (A) (A) (A) (A) (A)
                 (A) (A) (A) (A) (A) (A) (A) (A) (A) (A) (A) (A)
                 (A) (A) (A) (A) (A) (A) (A) (A) (A) (A) (A) (A)
                 (A) (A) (A) (A) (A) (A) (A) (A) (A) (A) (A)
 The electronic state is 1-A.
 Alpha  occ. eigenvalues --  -24.75693 -10.30823  -1.23718  -0.71259  -0.51385
 Alpha  occ. eigenvalues --   -0.50308  -0.50308  -0.36067  -0.36067
 Alpha virt. eigenvalues --    0.04847   0.08327   0.10455   0.10455   0.20741
 Alpha virt. eigenvalues --    0.20741   0.29785   0.32335   0.40706   0.40706
 Alpha virt. eigenvalues --    0.42953   0.54611   0.59194   0.59195   0.73325
 Alpha virt. eigenvalues --    0.73325   0.86745   0.86745   0.91209   1.00424
 Alpha virt. eigenvalues --    1.38242   1.40804   1.40805   1.47765   1.61317
 Alpha virt. eigenvalues --    1.67791   1.67791   1.85580   1.85580   1.87232
 Alpha virt. eigenvalues --    2.20199   2.20199   2.23255   2.23755   2.23756
 Alpha virt. eigenvalues --    2.38617   2.46259   2.46260   2.71282   2.71282
 Alpha virt. eigenvalues --    2.81976   2.90759   2.90760   3.20648   3.20649
 Alpha virt. eigenvalues --    3.26206   3.27808   3.39165   3.39165   3.52640
 Alpha virt. eigenvalues --    3.69462   3.69462   3.86241   3.97905   3.97908
 Alpha virt. eigenvalues --    4.11106   5.03843   6.92049   6.92224   7.01589
 Alpha virt. eigenvalues --    7.01589   7.28526   7.28526   7.34300   8.45518
 Alpha virt. eigenvalues --    8.45519   8.85373   8.85374   9.07486  22.23020
 Alpha virt. eigenvalues --   56.94311
          Condensed to atoms (all electrons):
               1          2          3          4          5
     1  C    4.554896   0.400273   0.202522   0.400275   0.400274
     2  H    0.400273   0.650850  -0.041295  -0.043803  -0.043803
     3  F    0.202522  -0.041295   9.196459  -0.041296  -0.041295
     4  H    0.400275  -0.043803  -0.041296   0.650845  -0.043803
     5  H    0.400274  -0.043803  -0.041295  -0.043803   0.650853
 Mulliken charges:
               1
     1  C    0.041760
     2  H    0.077778
     3  F   -0.275095
     4  H    0.077782
     5  H    0.077775
 Sum of Mulliken charges =  -0.00000
 Mulliken charges with hydrogens summed into heavy atoms:
               1
     1  C    0.275095
     3  F   -0.275095
 APT charges:
               1
     1  C    0.595371
     2  H   -0.027653
     3  F   -0.513746
     4  H   -0.026989
     5  H   -0.026982
 Sum of APT charges =   0.00000
 APT charges with hydrogens summed into heavy atoms:
               1
     1  C    0.513746
     3  F   -0.513746
 Electronic spatial extent (au):  <R**2>=             74.1233
 Charge=             -0.0000 electrons
 Dipole moment (field-independent basis, Debye):
    X=             -1.6108    Y=             -0.0214    Z=              0.4459  Tot=              1.6715
 Quadrupole moment (field-independent basis, Debye-Ang):
   XX=            -12.4539   YY=            -11.8352   ZZ=            -11.8826
   XY=             -0.0082   XZ=              0.1713   YZ=              0.0023
 Traceless Quadrupole moment (field-independent basis, Debye-Ang):
   XX=             -0.3967   YY=              0.2220   ZZ=              0.1747
   XY=             -0.0082   XZ=              0.1713   YZ=              0.0023
 Octapole moment (field-independent basis, Debye-Ang**2):
  XXX=              4.4205  YYY=              0.5722  ZZZ=             -1.2725  XYY=              1.3321
  XXY=             -0.0137  XXZ=             -0.5263  XZZ=              1.2781  YZZ=             -0.4650
  YYZ=             -0.1475  XYZ=             -0.1385
 Hexadecapole moment (field-independent basis, Debye-Ang**3):
 XXXX=            -47.5818 YYYY=            -17.1836 ZZZZ=            -19.6898 XXXY=             -0.0844
 XXXZ=              4.2832 YYYX=             -0.7436 YYYZ=              0.1967 ZZZX=              4.3464
 ZZZY=             -0.3576 XXYY=            -10.8532 XXZZ=            -11.0608 YYZZ=             -5.9706
 XXYZ=              0.2916 YYXZ=              1.1961 ZZXY=              0.3560
 N-N= 3.783043700717D+01 E-N=-4.067489321574D+02  KE= 1.392811204015D+02
  Exact polarizability:      14.959      -0.010      14.990       0.017      -0.019      14.989
 Approx polarizability:      18.377       0.003      18.145      -0.064      -0.001      18.163
   1 Symmetry operations used in ECPInt.
 ECPInt:  NShTT=     595 NPrTT=    1764 LenC2=     595 LenP2D=    1627.
 LDataN:  DoStor=T MaxTD1= 8 Len=  415
 Calling FoFJK, ICntrl=    100127 FMM=F ISym2X=0 I1Cent= 0 IOpClX= 0 NMat=1 NMatS=1 NMatT=0.
 ***** Axes restored to original set *****
 -------------------------------------------------------------------
 Center     Atomic                   Forces (Hartrees/Bohr)
 Number     Number              X              Y              Z
 -------------------------------------------------------------------
      1        6           0.000254894   -0.000213606   -0.000703681
      2        1           0.000826548   -0.000823815   -0.002683771
      3        9          -0.003186456    0.002648685    0.008610094
      4        1           0.001051056   -0.000680236   -0.002653799
      5        1           0.001053957   -0.000931028   -0.002568843
 -------------------------------------------------------------------
 Cartesian Forces:  Max     0.008610094 RMS     0.002800710
 FormGI is forming the generalized inverse of G from B-inverse, IUseBI=4.

 GradGradGradGradGradGradGradGradGradGradGradGradGradGradGradGradGradGrad
 Berny optimization.
 Internal  Forces:  Max     0.009555247 RMS     0.002851035
 Search for a local minimum.
 Step number   1 out of a maximum of   24
 All quantities printed in internal units (Hartrees-Bohrs-Radians)
 Mixed Optimization -- RFO/linear search
 Second derivative matrix not updated -- analytic derivatives used.
 The second derivative matrix:
                          R1        R2        R3        R4        A1
           R1           0.33680
           R2           0.01774   0.42425
           R3           0.00208   0.01770   0.33653
           R4           0.00208   0.01770   0.00209   0.33678
           A1          -0.00022   0.00706   0.00008  -0.00109   0.02747
           A2           0.00378  -0.00240   0.00376  -0.00712  -0.00922
           A3           0.00600  -0.01723  -0.00797   0.00495  -0.01203
           A4           0.00084   0.01114   0.00044  -0.00327  -0.00990
           A5          -0.00203   0.02193  -0.00200   0.00029  -0.02070
           A6          -0.00841  -0.01942   0.00565   0.00612   0.02430
           D1           0.00248   0.01398   0.00259  -0.00754   0.02199
           D2          -0.00205  -0.01176   0.00585  -0.00179  -0.01374
           D3           0.00314  -0.02721   0.00318  -0.00161  -0.00346
           D4           0.00520  -0.01545  -0.00267   0.00018   0.01028
                          A2        A3        A4        A5        A6
           A2           0.03770
           A3          -0.02225   0.07344
           A4          -0.00125   0.02551   0.05357
           A5           0.02371  -0.04015  -0.03771   0.10433
           A6          -0.02834  -0.02524  -0.03007  -0.02824   0.08667
           D1           0.01036  -0.01232   0.01985  -0.03416  -0.00551
           D2           0.00998  -0.00441   0.01993  -0.01456   0.00256
           D3           0.01385   0.00393  -0.00457  -0.01544   0.00504
           D4           0.00387   0.00834  -0.02450  -0.00088   0.00248
                          D1        D2        D3        D4
           D1           0.04506
           D2           0.00132   0.02825
           D3           0.00121   0.01130   0.02329
           D4          -0.00010  -0.01695   0.01199   0.02895
 ITU=  0
     Eigenvalues ---    0.04616   0.06341   0.08582   0.13533   0.16786
     Eigenvalues ---    0.33243   0.33557   0.33581   0.44071
 RFO step:  Lambda=-4.14171246D-04 EMin= 4.61592796D-02
 Linear search not attempted -- first point.
 Iteration  1 RMS(Cart)=  0.01203611 RMS(Int)=  0.00024448
 Iteration  2 RMS(Cart)=  0.00014368 RMS(Int)=  0.00018351
 Iteration  3 RMS(Cart)=  0.00000002 RMS(Int)=  0.00018351
 Variable       Old X    -DE/DX   Delta X   Delta X   Delta X     New X
                                 (Linear)    (Quad)   (Total)
    R1        2.06331   0.00079   0.00000   0.00203   0.00203   2.06534
    R2        2.56377   0.00956   0.00000   0.01520   0.01520   2.57896
    R3        2.06332   0.00080   0.00000   0.00205   0.00205   2.06537
    R4        2.06331   0.00079   0.00000   0.00204   0.00204   2.06536
    A1        1.89802   0.00062   0.00000   0.01506   0.01519   1.91322
    A2        1.92308  -0.00021   0.00000  -0.01438  -0.01480   1.90828
    A3        1.92308  -0.00152   0.00000  -0.01489  -0.01517   1.90792
    A4        1.89802   0.00098   0.00000   0.01512   0.01521   1.91323
    A5        1.89802   0.00193   0.00000   0.01520   0.01518   1.91320
    A6        1.92307  -0.00171   0.00000  -0.01488  -0.01513   1.90794
    D1        2.07878   0.00123   0.00000   0.01906   0.01892   2.09770
    D2       -2.07878  -0.00104   0.00000  -0.01880  -0.01868  -2.09746
    D3        2.12564  -0.00240   0.00000  -0.03768  -0.03741   2.08823
    D4       -2.07877  -0.00136   0.00000  -0.01888  -0.01872  -2.09749
         Item               Value     Threshold  Converged?
 Maximum Force            0.009555     0.000450     NO 
 RMS     Force            0.002851     0.000300     NO 
 Maximum Displacement     0.027344     0.001800     NO 
 RMS     Displacement     0.012099     0.001200     NO 
 Predicted change in Energy=-2.079321D-04
 GradGradGradGradGradGradGradGradGradGradGradGradGradGradGradGradGradGrad

                          Input orientation:                          
 ---------------------------------------------------------------------
 Center     Atomic      Atomic             Coordinates (Angstroms)
 Number     Number       Type             X           Y           Z
 ---------------------------------------------------------------------
      1          6           0       -0.486118    1.100487   -0.047519
      2          1           0        0.606808    1.099798   -0.050249
      3          9           0       -0.941043    1.479159    1.182170
      4          1           0       -0.849217    0.096142   -0.279857
      5          1           0       -0.849080    1.800264   -0.804544
 ---------------------------------------------------------------------
                    Distance matrix (angstroms):
                    1          2          3          4          5
     1  C    0.000000
     2  H    1.092929   0.000000
     3  F    1.364729   2.014600   0.000000
     4  H    1.092946   1.783271   2.014619   0.000000
     5  H    1.092940   1.783038   2.014596   1.783068   0.000000
 Stoichiometry    CH3F
 Framework group  C1[X(CH3F)]
 Deg. of freedom     9
 Full point group                 C1      NOp   1
 Largest Abelian subgroup         C1      NOp   1
 Largest concise Abelian subgroup C1      NOp   1
                         Standard orientation:                         
 ---------------------------------------------------------------------
 Center     Atomic      Atomic             Coordinates (Angstroms)
 Number     Number       Type             X           Y           Z
 ---------------------------------------------------------------------
      1          6           0       -0.621202   -0.000002   -0.000033
      2          1           0       -0.988159    0.859767   -0.566278
      3          9           0        0.743526   -0.000001    0.000006
      4          1           0       -0.988175   -0.920407   -0.461243
      5          1           0       -0.988190    0.060658    1.027663
 ---------------------------------------------------------------------
 Rotational constants (GHZ):         157.7132931          26.2002131          26.1994991
 Standard basis: def2TZVP (5D, 7F)
 There are    90 symmetry adapted cartesian basis functions of A   symmetry.
 There are    80 symmetry adapted basis functions of A   symmetry.
    80 basis functions,   126 primitive gaussians,    90 cartesian basis functions
     9 alpha electrons        9 beta electrons
       nuclear repulsion energy        37.6362664888 Hartrees.
 NAtoms=    5 NActive=    5 NUniq=    5 SFac= 1.00D+00 NAtFMM=   60 NAOKFM=F Big=F
 Integral buffers will be    131072 words long.
 Raffenetti 2 integral format.
 Two-electron integral symmetry is turned on.
 One-electron integrals computed using PRISM.
   1 Symmetry operations used in ECPInt.
 ECPInt:  NShTT=     595 NPrTT=    1764 LenC2=     595 LenP2D=    1627.
 LDataN:  DoStor=T MaxTD1= 6 Len=  172
 NBasis=    80 RedAO= T EigKep=  1.98D-03  NBF=    80
 NBsUse=    80 1.00D-06 EigRej= -1.00D+00 NBFU=    80
 Initial guess from the checkpoint file:  "checkpoint.chk"
 B after Tr=    -0.000000   -0.000000   -0.000000
         Rot=    0.928440    0.346174    0.128390   -0.040967 Ang=  43.61 deg.
 ExpMin= 9.52D-02 ExpMax= 3.55D+04 ExpMxC= 1.21D+03 IAcc=3 IRadAn=         5 AccDes= 0.00D+00
 Harris functional with IExCor= 1009 and IRadAn=       5 diagonalized for initial guess.
 HarFok:  IExCor= 1009 AccDes= 0.00D+00 IRadAn=         5 IDoV= 1 UseB2=F ITyADJ=14
 ICtDFT=  3500011 ScaDFX=  1.000000  1.000000  1.000000  1.000000
 FoFCou: FMM=F IPFlag=           0 FMFlag=      100000 FMFlg1=           0
         NFxFlg=           0 DoJE=T BraDBF=F KetDBF=T FulRan=T
         wScrn=  0.000000 ICntrl=       500 IOpCl=  0 I1Cent=   200000004 NGrid=           0
         NMat0=    1 NMatS0=      1 NMatT0=    0 NMatD0=    1 NMtDS0=    0 NMtDT0=    0
 Petite list used in FoFCou.
 Keep R1 ints in memory in canonical form, NReq=8911030.
 Requested convergence on RMS density matrix=1.00D-08 within 128 cycles.
 Requested convergence on MAX density matrix=1.00D-06.
 Requested convergence on             energy=1.00D-06.
 No special actions if energy rises.
 Integral accuracy reduced to 1.0D-05 until final iterations.
 Initial convergence to 1.0D-05 achieved.  Increase integral accuracy.
 SCF Done:  E(RM06) =  -139.733391734     A.U. after   10 cycles
            NFock= 10  Conv=0.38D-08     -V/T= 2.0034
 DoSCS=F DFT=T ScalE2(SS,OS)=  1.000000  1.000000
 Range of M.O.s used for correlation:     1    80
 NBasis=    80 NAE=     9 NBE=     9 NFC=     0 NFV=     0
 NROrb=     80 NOA=     9 NOB=     9 NVA=    71 NVB=    71
   1 Symmetry operations used in ECPInt.
 ECPInt:  NShTT=     595 NPrTT=    1764 LenC2=     595 LenP2D=    1627.
 LDataN:  DoStor=T MaxTD1= 7 Len=  274
 Symmetrizing basis deriv contribution to polar:
 IMax=3 JMax=2 DiffMx= 0.00D+00
 G2DrvN: will do     6 centers at a time, making    1 passes.
 Calling FoFCou, ICntrl=  3107 FMM=F I1Cent=   0 AccDes= 0.00D+00.
 End of G2Drv F.D. properties file   721 does not exist.
 End of G2Drv F.D. properties file   722 does not exist.
 End of G2Drv F.D. properties file   788 does not exist.
          IDoAtm=11111
          Differentiating once with respect to electric field.
                with respect to dipole field.
          Differentiating once with respect to nuclear coordinates.
 Keep R1 ints in memory in canonical form, NReq=8901785.
          There are    18 degrees of freedom in the 1st order CPHF.  IDoFFX=6 NUNeed=     3.
     15 vectors produced by pass  0 Test12= 3.55D-15 5.56D-09 XBig12= 7.14D+00 1.61D+00.
 AX will form    15 AO Fock derivatives at one time.
     15 vectors produced by pass  1 Test12= 3.55D-15 5.56D-09 XBig12= 8.46D-01 2.70D-01.
     15 vectors produced by pass  2 Test12= 3.55D-15 5.56D-09 XBig12= 4.03D-03 1.65D-02.
     15 vectors produced by pass  3 Test12= 3.55D-15 5.56D-09 XBig12= 2.19D-05 1.30D-03.
     15 vectors produced by pass  4 Test12= 3.55D-15 5.56D-09 XBig12= 1.13D-07 9.43D-05.
     14 vectors produced by pass  5 Test12= 3.55D-15 5.56D-09 XBig12= 3.18D-10 6.43D-06.
      6 vectors produced by pass  6 Test12= 3.55D-15 5.56D-09 XBig12= 6.36D-13 1.89D-07.
      1 vectors produced by pass  7 Test12= 3.55D-15 5.56D-09 XBig12= 1.57D-15 1.62D-08.
 InvSVY:  IOpt=1 It=  1 EMax= 1.67D-15
 Solved reduced A of dimension    96 with    15 vectors.
 Isotropic polarizability for W=    0.000000       15.02 Bohr**3.
 End of Minotr F.D. properties file   721 does not exist.
 End of Minotr F.D. properties file   722 does not exist.
 End of Minotr F.D. properties file   788 does not exist.
   1 Symmetry operations used in ECPInt.
 ECPInt:  NShTT=     595 NPrTT=    1764 LenC2=     595 LenP2D=    1627.
 LDataN:  DoStor=T MaxTD1= 8 Len=  415
 Calling FoFJK, ICntrl=    100127 FMM=F ISym2X=0 I1Cent= 0 IOpClX= 0 NMat=1 NMatS=1 NMatT=0.
 ***** Axes restored to original set *****
 -------------------------------------------------------------------
 Center     Atomic                   Forces (Hartrees/Bohr)
 Number     Number              X              Y              Z
 -------------------------------------------------------------------
      1        6           0.000064458   -0.000050527   -0.000229974
      2        1           0.000023258   -0.000017809    0.000010640
      3        9          -0.000079780    0.000064975    0.000221847
      4        1           0.000007069   -0.000016817    0.000006967
      5        1          -0.000015004    0.000020177   -0.000009479
 -------------------------------------------------------------------
 Cartesian Forces:  Max     0.000229974 RMS     0.000089990
 FormGI is forming the generalized inverse of G from B-inverse, IUseBI=4.

 GradGradGradGradGradGradGradGradGradGradGradGradGradGradGradGradGradGrad
 Berny optimization.
 Using GEDIIS/GDIIS optimizer.
 Internal  Forces:  Max     0.000244519 RMS     0.000066622
 Search for a local minimum.
 Step number   2 out of a maximum of   24
 All quantities printed in internal units (Hartrees-Bohrs-Radians)
 Mixed Optimization -- En-DIIS/RFO-DIIS
 Second derivative matrix not updated -- analytic derivatives used.
 DE= -2.09D-04 DEPred=-2.08D-04 R= 1.00D+00
 TightC=F SS=  1.41D+00  RLast= 6.38D-02 DXNew= 5.0454D-01 1.9142D-01
 Trust test= 1.00D+00 RLast= 6.38D-02 DXMaxT set to 3.00D-01
 The second derivative matrix:
                          R1        R2        R3        R4        A1
           R1           0.33478
           R2           0.01673   0.40126
           R3           0.00229   0.01678   0.33468
           R4           0.00224   0.01666   0.00226   0.33510
           A1          -0.00060   0.00695   0.00013  -0.00099   0.02711
           A2           0.00397  -0.00291   0.00387  -0.00714  -0.00918
           A3           0.00619  -0.01713  -0.00803   0.00534  -0.01259
           A4           0.00097   0.01089   0.00002  -0.00322  -0.01006
           A5          -0.00201   0.02125  -0.00192  -0.00048  -0.01971
           A6          -0.00851  -0.01928   0.00594   0.00652   0.02444
           D1           0.00231   0.01342   0.00256  -0.00759   0.02141
           D2          -0.00185  -0.01099   0.00596  -0.00178  -0.01340
           D3           0.00344  -0.02549   0.00346  -0.00156  -0.00404
           D4           0.00529  -0.01450  -0.00250   0.00022   0.00935
                          A2        A3        A4        A5        A6
           A2           0.03610
           A3          -0.02152   0.07362
           A4          -0.00153   0.02558   0.05291
           A5           0.02354  -0.04145  -0.03606   0.10324
           A6          -0.02749  -0.02348  -0.03089  -0.02981   0.08743
           D1           0.01007  -0.01302   0.01917  -0.03177  -0.00593
           D2           0.01008  -0.00453   0.01866  -0.01355   0.00277
           D3           0.01447   0.00399  -0.00507  -0.01425   0.00503
           D4           0.00439   0.00851  -0.02373  -0.00070   0.00226
                          D1        D2        D3        D4
           D1           0.04423
           D2           0.00124   0.02752
           D3           0.00086   0.01123   0.02308
           D4          -0.00038  -0.01628   0.01184   0.02812
 ITU=  1  0
 Use linear search instead of GDIIS.
     Eigenvalues ---    0.04720   0.06119   0.08435   0.13503   0.16527
     Eigenvalues ---    0.33002   0.33357   0.33387   0.41868
 RFO step:  Lambda=-1.57706097D-07 EMin= 4.71984146D-02
 Quintic linear search produced a step of  0.00788.
 Iteration  1 RMS(Cart)=  0.00016387 RMS(Int)=  0.00000148
 Iteration  2 RMS(Cart)=  0.00000002 RMS(Int)=  0.00000148
 Variable       Old X    -DE/DX   Delta X   Delta X   Delta X     New X
                                 (Linear)    (Quad)   (Total)
    R1        2.06534   0.00002   0.00002   0.00002   0.00003   2.06537
    R2        2.57896   0.00024   0.00012   0.00056   0.00068   2.57965
    R3        2.06537   0.00001   0.00002  -0.00002   0.00000   2.06537
    R4        2.06536   0.00002   0.00002   0.00000   0.00002   2.06538
    A1        1.91322  -0.00000   0.00012  -0.00030  -0.00018   1.91304
    A2        1.90828  -0.00002  -0.00012   0.00008  -0.00004   1.90823
    A3        1.90792   0.00002  -0.00012   0.00043   0.00031   1.90822
    A4        1.91323  -0.00000   0.00012  -0.00030  -0.00018   1.91305
    A5        1.91320  -0.00001   0.00012  -0.00028  -0.00016   1.91304
    A6        1.90794   0.00001  -0.00012   0.00038   0.00026   1.90820
    D1        2.09770  -0.00001   0.00015  -0.00051  -0.00036   2.09735
    D2       -2.09746  -0.00000  -0.00015   0.00028   0.00013  -2.09734
    D3        2.08823  -0.00000  -0.00029   0.00058   0.00029   2.08851
    D4       -2.09749   0.00000  -0.00015   0.00030   0.00016  -2.09734
         Item               Value     Threshold  Converged?
 Maximum Force            0.000245     0.000450     YES
 RMS     Force            0.000067     0.000300     YES
 Maximum Displacement     0.000341     0.001800     YES
 RMS     Displacement     0.000164     0.001200     YES
 Predicted change in Energy=-9.320370D-08
 Optimization completed.
    -- Stationary point found.
                           ----------------------------
                           !   Optimized Parameters   !
                           ! (Angstroms and Degrees)  !
 --------------------------                            --------------------------
 ! Name  Definition              Value          Derivative Info.                !
 --------------------------------------------------------------------------------
 ! R1    R(1,2)                  1.0929         -DE/DX =    0.0                 !
 ! R2    R(1,3)                  1.3647         -DE/DX =    0.0002              !
 ! R3    R(1,4)                  1.0929         -DE/DX =    0.0                 !
 ! R4    R(1,5)                  1.0929         -DE/DX =    0.0                 !
 ! A1    A(2,1,3)              109.6193         -DE/DX =    0.0                 !
 ! A2    A(2,1,4)              109.3361         -DE/DX =    0.0                 !
 ! A3    A(2,1,5)              109.3155         -DE/DX =    0.0                 !
 ! A4    A(3,1,4)              109.6199         -DE/DX =    0.0                 !
 ! A5    A(3,1,5)              109.6183         -DE/DX =    0.0                 !
 ! A6    A(4,1,5)              109.317          -DE/DX =    0.0                 !
 ! D1    D(2,1,4,3)            120.1895         -DE/DX =    0.0                 !
 ! D2    D(2,1,5,3)           -120.1759         -DE/DX =    0.0                 !
 ! D3    D(2,1,5,4)            119.6466         -DE/DX =    0.0                 !
 ! D4    D(3,1,5,4)           -120.1775         -DE/DX =    0.0                 !
 --------------------------------------------------------------------------------
 GradGradGradGradGradGradGradGradGradGradGradGradGradGradGradGradGradGrad

                          Input orientation:                          
 ---------------------------------------------------------------------
 Center     Atomic      Atomic             Coordinates (Angstroms)
 Number     Number       Type             X           Y           Z
 ---------------------------------------------------------------------
      1          6           0       -0.486118    1.100487   -0.047519
      2          1           0        0.606808    1.099798   -0.050249
      3          9           0       -0.941043    1.479159    1.182170
      4          1           0       -0.849217    0.096142   -0.279857
      5          1           0       -0.849080    1.800264   -0.804544
 ---------------------------------------------------------------------
                    Distance matrix (angstroms):
                    1          2          3          4          5
     1  C    0.000000
     2  H    1.092929   0.000000
     3  F    1.364729   2.014600   0.000000
     4  H    1.092946   1.783271   2.014619   0.000000
     5  H    1.092940   1.783038   2.014596   1.783068   0.000000
 Stoichiometry    CH3F
 Framework group  C1[X(CH3F)]
 Deg. of freedom     9
 Full point group                 C1      NOp   1
 Largest Abelian subgroup         C1      NOp   1
 Largest concise Abelian subgroup C1      NOp   1
                         Standard orientation:                         
 ---------------------------------------------------------------------
 Center     Atomic      Atomic             Coordinates (Angstroms)
 Number     Number       Type             X           Y           Z
 ---------------------------------------------------------------------
      1          6           0       -0.621202   -0.000002   -0.000033
      2          1           0       -0.988159    0.859767   -0.566278
      3          9           0        0.743526   -0.000001    0.000006
      4          1           0       -0.988175   -0.920407   -0.461243
      5          1           0       -0.988190    0.060658    1.027663
 ---------------------------------------------------------------------
 Rotational constants (GHZ):         157.7132931          26.2002131          26.1994991

 **********************************************************************

            Population analysis using the SCF Density.

 **********************************************************************

 Orbital symmetries:
       Occupied  (A) (A) (A) (A) (A) (A) (A) (A) (A)
       Virtual   (A) (A) (A) (A) (A) (A) (A) (A) (A) (A) (A) (A)
                 (A) (A) (A) (A) (A) (A) (A) (A) (A) (A) (A) (A)
                 (A) (A) (A) (A) (A) (A) (A) (A) (A) (A) (A) (A)
                 (A) (A) (A) (A) (A) (A) (A) (A) (A) (A) (A) (A)
                 (A) (A) (A) (A) (A) (A) (A) (A) (A) (A) (A) (A)
                 (A) (A) (A) (A) (A) (A) (A) (A) (A) (A) (A)
 The electronic state is 1-A.
 Alpha  occ. eigenvalues --  -24.75780 -10.30947  -1.23450  -0.71333  -0.51439
 Alpha  occ. eigenvalues --   -0.50051  -0.50048  -0.36169  -0.36167
 Alpha virt. eigenvalues --    0.04815   0.08092   0.10447   0.10447   0.20840
 Alpha virt. eigenvalues --    0.20842   0.29625   0.32160   0.40555   0.40558
 Alpha virt. eigenvalues --    0.43033   0.54515   0.59065   0.59067   0.73115
 Alpha virt. eigenvalues --    0.73116   0.86971   0.86971   0.91026   1.00143
 Alpha virt. eigenvalues --    1.38510   1.40425   1.40428   1.48174   1.62264
 Alpha virt. eigenvalues --    1.67247   1.67249   1.85211   1.85215   1.87591
 Alpha virt. eigenvalues --    2.21066   2.21073   2.22657   2.22983   2.22993
 Alpha virt. eigenvalues --    2.38945   2.46329   2.46345   2.69834   2.69837
 Alpha virt. eigenvalues --    2.82870   2.90535   2.90537   3.20266   3.20268
 Alpha virt. eigenvalues --    3.24521   3.26189   3.40099   3.40105   3.50396
 Alpha virt. eigenvalues --    3.69365   3.69368   3.85649   3.97495   3.97513
 Alpha virt. eigenvalues --    4.10201   5.04269   6.92069   6.92240   7.01111
 Alpha virt. eigenvalues --    7.01113   7.27465   7.27465   7.33250   8.45113
 Alpha virt. eigenvalues --    8.45118   8.84241   8.84241   9.07588  22.20698
 Alpha virt. eigenvalues --   56.93344
          Condensed to atoms (all electrons):
               1          2          3          4          5
     1  C    4.560219   0.399240   0.204741   0.399238   0.399222
     2  H    0.399240   0.649580  -0.039303  -0.044487  -0.044510
     3  F    0.204741  -0.039303   9.188938  -0.039301  -0.039301
     4  H    0.399238  -0.044487  -0.039301   0.649579  -0.044507
     5  H    0.399222  -0.044510  -0.039301  -0.044507   0.649621
 Mulliken charges:
               1
     1  C    0.037340
     2  H    0.079480
     3  F   -0.275773
     4  H    0.079478
     5  H    0.079475
 Sum of Mulliken charges =   0.00000
 Mulliken charges with hydrogens summed into heavy atoms:
               1
     1  C    0.275773
     3  F   -0.275773
 APT charges:
               1
     1  C    0.593796
     2  H   -0.026919
     3  F   -0.512956
     4  H   -0.027037
     5  H   -0.026884
 Sum of APT charges =   0.00000
 APT charges with hydrogens summed into heavy atoms:
               1
     1  C    0.512956
     3  F   -0.512956
 Electronic spatial extent (au):  <R**2>=             74.7368
 Charge=              0.0000 electrons
 Dipole moment (field-independent basis, Debye):
    X=             -1.7132    Y=              0.0000    Z=              0.0000  Tot=              1.7132
 Quadrupole moment (field-independent basis, Debye-Ang):
   XX=            -12.4365   YY=            -11.8620   ZZ=            -11.8628
   XY=             -0.0000   XZ=             -0.0001   YZ=             -0.0000
 Traceless Quadrupole moment (field-independent basis, Debye-Ang):
   XX=             -0.3827   YY=              0.1918   ZZ=              0.1909
   XY=             -0.0000   XZ=             -0.0001   YZ=             -0.0000
 Octapole moment (field-independent basis, Debye-Ang**2):
  XXX=              4.5486  YYY=             -0.0971  ZZZ=              0.5438  XYY=              1.3202
  XXY=              0.0000  XXZ=              0.0002  XZZ=              1.3210  YZZ=              0.0972
  YYZ=             -0.5437  XYZ=              0.0000
 Hexadecapole moment (field-independent basis, Debye-Ang**3):
 XXXX=            -50.5573 YYYY=            -17.1536 ZZZZ=            -17.1533 XXXY=             -0.0001
 XXXZ=             -0.0002 YYYX=              0.1082 YYYZ=             -0.0001 ZZZX=             -0.6057
 ZZZY=             -0.0000 XXYY=            -11.2145 XXZZ=            -11.2150 YYZZ=             -5.7180
 XXYZ=             -0.0000 YYXZ=              0.6057 ZZXY=             -0.1082
 N-N= 3.763626648885D+01 E-N=-4.063415033806D+02  KE= 1.392533683934D+02
  Exact polarizability:      15.199      -0.002      14.913      -0.029      -0.005      14.960
 Approx polarizability:      18.729       0.000      18.103      -0.001       0.000      18.101
 Rotating derivatives to standard orientation.
 Full mass-weighted force constant matrix:
 Low frequencies ---  -16.8580  -10.0474   -0.0004    0.0008    0.0012   29.3259
 Low frequencies --- 1119.4601 1195.0643 1195.4600
 Diagonal vibrational polarizability:
        2.7931795       0.1661731       0.1662929
 Harmonic frequencies (cm**-1), IR intensities (KM/Mole), Raman scattering
 activities (A**4/AMU), depolarization ratios for plane and unpolarized
 incident light, reduced masses (AMU), force constants (mDyne/A),
 and normal coordinates:
                      1                      2                      3
                      A                      A                      A
 Frequencies --   1119.4601              1195.0641              1195.4599
 Red. masses --      7.9191                 1.2718                 1.2719
 Frc consts  --      5.8471                 1.0701                 1.0710
 IR Inten    --    123.7312                 1.2166                 1.2176
  Atom  AN      X      Y      Z        X      Y      Z        X      Y      Z
     1   6     0.57  -0.00  -0.00     0.00   0.09   0.10     0.00  -0.10   0.09
     2   1     0.40  -0.02   0.02    -0.11  -0.19  -0.25     0.72   0.07  -0.11
     3   9    -0.43   0.00   0.00    -0.00  -0.04  -0.04    -0.00   0.04  -0.04
     4   1     0.40   0.03   0.01     0.69  -0.05  -0.15    -0.26   0.17  -0.24
     5   1     0.40  -0.00  -0.03    -0.57  -0.20  -0.08    -0.46   0.24  -0.09
                      4                      5                      6
                      A                      A                      A
 Frequencies --   1468.8314              1469.3751              1480.4555
 Red. masses --      1.0438                 1.0440                 1.1430
 Frc consts  --      1.3268                 1.3281                 1.4760
 IR Inten    --      4.0993                 4.0114                 3.3329
  Atom  AN      X      Y      Z        X      Y      Z        X      Y      Z
     1   6     0.00   0.03  -0.04    -0.00  -0.04  -0.03    -0.11   0.00   0.00
     2   1     0.34   0.25   0.11    -0.10   0.34   0.59     0.54   0.17  -0.14
     3   9     0.00   0.01  -0.01    -0.00  -0.01  -0.01    -0.02   0.00   0.00
     4   1    -0.07  -0.29   0.64     0.36  -0.20   0.05     0.52  -0.19  -0.10
     5   1    -0.27  -0.48  -0.09    -0.22   0.53  -0.13     0.54  -0.01   0.22
                      7                      8                      9
                      A                      A                      A
 Frequencies --   3013.5205              3103.6347              3105.0185
 Red. masses --      1.0284                 1.1067                 1.1066
 Frc consts  --      5.5025                 6.2810                 6.2861
 IR Inten    --     32.1482                33.4992                32.9098
  Atom  AN      X      Y      Z        X      Y      Z        X      Y      Z
     1   6     0.04   0.00   0.00     0.00  -0.09  -0.01     0.00   0.01  -0.09
     2   1    -0.19   0.46  -0.30    -0.20   0.49  -0.34     0.16  -0.41   0.25
     3   9     0.00  -0.00  -0.00     0.00   0.00   0.00     0.00  -0.00   0.00
     4   1    -0.19  -0.49  -0.25     0.24   0.64   0.33     0.09   0.25   0.10
     5   1    -0.18   0.03   0.54    -0.04  -0.01   0.13    -0.26   0.05   0.76

 -------------------
 - Thermochemistry -
 -------------------
 Temperature   298.150 Kelvin.  Pressure   1.00000 Atm.
 Atom     1 has atomic number  6 and mass  12.00000
 Atom     2 has atomic number  1 and mass   1.00783
 Atom     3 has atomic number  9 and mass  18.99840
 Atom     4 has atomic number  1 and mass   1.00783
 Atom     5 has atomic number  1 and mass   1.00783
 Molecular mass:    34.02188 amu.
 Principal axes and moments of inertia in atomic units:
                           1         2         3
     Eigenvalues --    11.44318  68.88269  68.88457
           X            1.00000  -0.00000  -0.00001
           Y            0.00000   1.00000  -0.00000
           Z            0.00001   0.00000   1.00000
 This molecule is an asymmetric top.
 Rotational symmetry number  1.
 Rotational temperatures (Kelvin)      7.56904     1.25741     1.25738
 Rotational constants (GHZ):         157.71329    26.20021    26.19950
 Zero-point vibrational energy     102584.7 (Joules/Mol)
                                   24.51833 (Kcal/Mol)
 Vibrational temperatures:   1610.65  1719.43  1720.00  2113.32  2114.10
          (Kelvin)           2130.05  4335.78  4465.44  4467.43
 
 Zero-point correction=                           0.039072 (Hartree/Particle)
 Thermal correction to Energy=                    0.041979
 Thermal correction to Enthalpy=                  0.042923
 Thermal correction to Gibbs Free Energy=         0.016638
 Sum of electronic and zero-point Energies=           -139.694319
 Sum of electronic and thermal Energies=              -139.691413
 Sum of electronic and thermal Enthalpies=            -139.690469
 Sum of electronic and thermal Free Energies=         -139.716754
 
                     E (Thermal)             CV                S
                      KCal/Mol        Cal/Mol-Kelvin    Cal/Mol-Kelvin
 Total                   26.342              6.889             55.321
 Electronic               0.000              0.000              0.000
 Translational            0.889              2.981             36.504
 Rotational               0.889              2.981             18.635
 Vibrational             24.565              0.927              0.182
                       Q            Log10(Q)             Ln(Q)
 Total Bot       0.222339D-07         -7.652984        -17.621648
 Total V=0       0.208485D+11         10.319076         23.760550
 Vib (Bot)       0.108066D-17        -17.966311        -41.368959
 Vib (V=0)       0.101333D+01          0.005749          0.013238
 Electronic      0.100000D+01          0.000000          0.000000
 Translational   0.779994D+07          6.892091         15.869627
 Rotational      0.263776D+04          3.421235          7.877685
 ***** Axes restored to original set *****
 -------------------------------------------------------------------
 Center     Atomic                   Forces (Hartrees/Bohr)
 Number     Number              X              Y              Z
 -------------------------------------------------------------------
      1        6           0.000064458   -0.000050527   -0.000229974
      2        1           0.000023258   -0.000017809    0.000010640
      3        9          -0.000079780    0.000064975    0.000221847
      4        1           0.000007069   -0.000016817    0.000006967
      5        1          -0.000015004    0.000020177   -0.000009479
 -------------------------------------------------------------------
 Cartesian Forces:  Max     0.000229974 RMS     0.000089990

 ----------------------------------------------------------------------

 Electric dipole moment (input orientation):
 (Debye = 10**-18 statcoulomb cm , SI units = C m)
                  (au)            (Debye)         (10**-30 SI)
   Tot        0.674029D+00      0.171321D+01      0.571466D+01
   x          0.224674D+00      0.571065D+00      0.190487D+01
   y         -0.186995D+00     -0.475293D+00     -0.158541D+01
   z         -0.607347D+00     -0.154372D+01     -0.514930D+01

 Dipole polarizability, Alpha (input orientation).
 (esu units = cm**3 , SI units = C**2 m**2 J**-1)
 Alpha(0;0):
               (au)            (10**-24 esu)      (10**-40 SI)
   iso        0.150239D+02      0.222631D+01      0.247711D+01
   aniso      0.270206D+00      0.400403D-01      0.445509D-01
   xx         0.149529D+02      0.221578D+01      0.246539D+01
   yx        -0.348383D-01     -0.516250D-02     -0.574406D-02
   yy         0.149434D+02      0.221438D+01      0.246383D+01
   zx        -0.652754D-01     -0.967282D-02     -0.107625D-01
   zy         0.401122D-01      0.594402D-02      0.661361D-02
   zz         0.151755D+02      0.224877D+01      0.250210D+01

 ----------------------------------------------------------------------

 Dipole orientation:
     6         -0.79371192         -1.97565036         -0.80223693
     1          1.14912615         -2.07629815         -0.10879097
     9         -0.79375702         -1.97576757         -3.38120067
     1         -1.67844007         -0.24298191         -0.10879503
     1         -1.85204953         -3.60801592         -0.10869414

 Electric dipole moment (dipole orientation):
 (Debye = 10**-18 statcoulomb cm , SI units = C m)
                  (au)            (Debye)         (10**-30 SI)
   Tot        0.674029D+00      0.171321D+01      0.571466D+01
   x          0.000000D+00      0.000000D+00      0.000000D+00
   y          0.000000D+00      0.000000D+00      0.000000D+00
   z          0.674029D+00      0.171321D+01      0.571466D+01

 Dipole polarizability, Alpha (dipole orientation).
 (esu units = cm**3 , SI units = C**2 m**2 J**-1)
 Alpha(0;0):
               (au)            (10**-24 esu)      (10**-40 SI)
   iso        0.150239D+02      0.222631D+01      0.247711D+01
   aniso      0.270206D+00      0.400403D-01      0.445509D-01
   xx         0.149347D+02      0.221309D+01      0.246240D+01
   yx         0.243055D-01      0.360171D-02      0.400744D-02
   yy         0.149384D+02      0.221365D+01      0.246301D+01
   zx        -0.155431D-01     -0.230324D-02     -0.256270D-02
   zy        -0.248056D-01     -0.367582D-02     -0.408990D-02
   zz         0.151986D+02      0.225220D+01      0.250591D+01

 ----------------------------------------------------------------------
 Unable to Open any file for archive entry.
 1\1\GINC-GADI-CPU-CLX-1411\Freq\RM06\def2TZVP\C1H3F1\PK8622\23-Jun-202
 0\0\\# M06/Def2TZVP Freq=(anharmonic,ReadAnharm) Opt=CalcAll\\Anharmon
 ic frequencies for fluoromethane using VPT2\\0,1\C,-0.4861178717,1.100
 4866795,-0.0475194115\H,0.6068077871,1.0997979814,-0.050249103\F,-0.94
 10426211,1.4791592488,1.1821697198\H,-0.8492171414,0.0961418158,-0.279
 8569284\H,-0.849080153,1.8002642744,-0.8045442771\\Version=ES64L-G16Re
 vC.01\State=1-A\HF=-139.7333917\RMSD=3.770e-09\RMSF=8.999e-05\ZeroPoin
 t=0.0390724\Thermal=0.0419788\ETot=-139.691413\HTot=-139.6904688\GTot=
 -139.7167536\Dipole=0.2246744,-0.1869948,-0.6073468\DipoleDeriv=0.4451
 627,-0.0608579,-0.2000319,-0.0607975,0.4232211,0.1668996,-0.1986877,0.
 1654512,0.9130045,-0.1475406,0.0090758,0.0329722,-0.0091391,0.0554396,
 -0.0140857,-0.0275119,-0.0145223,0.0113453,-0.3496685,0.0686375,0.2211
 615,0.0686474,-0.3248271,-0.1835146,0.2195095,-0.1824537,-0.8643726,0.
 0260197,-0.0773814,-0.0063082,-0.051031,-0.1155781,-0.0680068,0.018929
 1,-0.015725,0.0084473,0.0260266,0.0605261,-0.0477936,0.0523202,-0.0382
 555,0.0987074,-0.012239,0.0472499,-0.0684246\Polar=14.9528512,-0.03483
 83,14.9433781,-0.0652754,0.0401122,15.1754757\PG=C01 [X(C1H3F1)]\NImag
 =0\\0.57146983,0.00754645,0.57403014,0.02459825,-0.02063740,0.51438334
 ,-0.30965875,-0.00385709,-0.01222221,0.33478884,-0.00637139,-0.0517174
 7,0.00105752,0.00059406,0.04658084,-0.02033634,0.00104936,-0.04878188,
 0.00162670,0.00416083,0.05896072,-0.09127688,0.02160468,0.07007269,-0.
 00859961,0.01332633,0.04324646,0.08549774,0.02162907,-0.08328790,-0.05
 830703,0.00430247,0.00178070,-0.00554196,-0.03287398,0.07343042,0.0700
 1381,-0.05823241,-0.25474171,0.01397545,-0.00553837,-0.01457140,-0.106
 67929,0.08878528,0.33446589,-0.08521258,-0.08822530,-0.01790383,-0.008
 31496,-0.02876537,-0.00456338,0.00718663,0.01575110,0.00754442,0.08127
 775,-0.08464571,-0.27038030,-0.03961917,0.00101362,0.00166208,0.001696
 74,0.00279680,-0.00512351,-0.01338358,0.08968391,0.28981374,-0.0145384
 6,-0.03269182,-0.05421481,-0.00217410,-0.00134370,0.00218118,-0.004497
 18,-0.03837764,-0.02350364,0.01373913,0.05416032,0.06895630,-0.0853216
 1,0.06293127,-0.06454490,-0.00821552,0.02121637,-0.01997344,0.00719213
 ,-0.00880866,0.01514561,0.00506317,-0.00884863,0.00747060,0.08128183,0
 .06184158,-0.16864447,0.11750608,-0.00205306,0.00169385,-0.00136498,-0
 .00485384,0.01320030,-0.01163093,0.01155566,-0.01597201,0.01825285,-0.
 06649035,0.16972233,-0.05973726,0.11051227,-0.15664493,-0.00120583,0.0
 0166372,0.00221138,-0.00214268,0.01344136,-0.04164914,0.00118366,-0.00
 285432,0.00658098,0.06190212,-0.12276302,0.18950172\\-0.00006446,0.000
 05053,0.00022997,-0.00002326,0.00001781,-0.00001064,0.00007978,-0.0000
 6498,-0.00022185,-0.00000707,0.00001682,-0.00000697,0.00001500,-0.0000
 2018,0.00000948\\\@
 The archive entry for this job was punched.


 Sometimes the fool who rushes in gets the job done.
                                    -- Al Bernstein
 Job cpu time:       0 days  0 hours  3 minutes  4.8 seconds.
 Elapsed time:       0 days  0 hours  0 minutes 46.7 seconds.
 File lengths (MBytes):  RWF=      7 Int=      0 D2E=      0 Chk=     76 Scr=      1
 Normal termination of Gaussian 16 at Tue Jun 23 13:45:22 2020.
 Link1:  Proceeding to internal job step number  2.
 ------------------------------------------------------------------
 #N Geom=AllCheck Guess=TCheck SCRF=Check GenChk RM06/def2TZVP Freq
 ------------------------------------------------------------------
 1/10=4,29=7,30=1,38=21,40=1,80=1/1,6,3;
 2/12=2,40=1/2;
 3/5=44,7=101,11=2,14=-4,25=1,30=1,70=2,71=2,74=-54,116=1,140=1/1,2,3;
 4/5=101,69=2/1;
 5/5=2,38=6,98=1/2;
 8/6=4,10=90,11=11/1;
 11/6=1,8=1,9=11,15=111,16=1/1,2,10;
 10/6=1,60=-2/2;
 6/7=2,8=2,9=2,10=2,28=1/1;
 7/10=1,25=1,71=2,72=1/1,2,3,16;
 1/38=20,80=1/6(3);
 7/8=1,25=202,44=-1,71=1,72=1,92=10/16,17;
 1/10=4,30=1,38=20,80=1/3;
 99//99;
 3/5=44,7=101,11=2,14=-2,25=1,30=1,70=5,71=2,74=-54,116=1,140=1/1,2,3;
 4/5=5,16=3,69=2/1;
 5/5=2,38=5,98=1/2;
 8/6=4,10=90,11=11/1;
 11/6=1,8=1,9=11,15=111,16=1/1,2,10;
 10/6=1,60=-2/2;
 6/7=2,8=2,9=2,10=2,28=1/1;
 7/7=1,10=1,25=1,71=1,72=1/1,2,3,16;
 1/38=20,80=1/6(-8);
 7/8=1,25=202,44=-1,71=1,72=1,92=10/16,17;
 1/10=4,30=1,38=20,80=1/3;
 99//99;
 Structure from the checkpoint file:  "checkpoint.chk"
 ---------------------------------------------------
 Anharmonic frequencies for fluoromethane using VPT2
 ---------------------------------------------------
 Charge =  0 Multiplicity = 1
 Redundant internal coordinates found in file.  (old form).
 C,0,-0.4861178717,1.1004866795,-0.0475194115
 H,0,0.6068077871,1.0997979814,-0.050249103
 F,0,-0.9410426211,1.4791592488,1.1821697198
 H,0,-0.8492171414,0.0961418158,-0.2798569284
 H,0,-0.849080153,1.8002642744,-0.8045442771
 Recover connectivity data from disk.
 Numerical evaluation of third derivatives.
 Nuclear step= 0.010000 Angstroms, electric field step= 0.000333 atomic units, NStep=1.

 GradGradGradGradGradGradGradGradGradGradGradGradGradGradGradGradGradGrad
 Berny optimization.
 Initialization pass.
                           ----------------------------
                           !    Initial Parameters    !
                           ! (Angstroms and Degrees)  !
 --------------------------                            --------------------------
 ! Name  Definition              Value          Derivative Info.                !
 --------------------------------------------------------------------------------
 ! R1    R(1,2)                  1.0929         calculate D2E/DX2 analytically  !
 ! R2    R(1,3)                  1.3647         calculate D2E/DX2 analytically  !
 ! R3    R(1,4)                  1.0929         calculate D2E/DX2 analytically  !
 ! R4    R(1,5)                  1.0929         calculate D2E/DX2 analytically  !
 ! A1    A(2,1,3)              109.6193         calculate D2E/DX2 analytically  !
 ! A2    A(2,1,4)              109.3361         calculate D2E/DX2 analytically  !
 ! A3    A(2,1,5)              109.3155         calculate D2E/DX2 analytically  !
 ! A4    A(3,1,4)              109.6199         calculate D2E/DX2 analytically  !
 ! A5    A(3,1,5)              109.6183         calculate D2E/DX2 analytically  !
 ! A6    A(4,1,5)              109.317          calculate D2E/DX2 analytically  !
 ! D1    D(2,1,4,3)            120.1895         calculate D2E/DX2 analytically  !
 ! D2    D(2,1,5,3)           -120.1759         calculate D2E/DX2 analytically  !
 ! D3    D(2,1,5,4)            119.6466         calculate D2E/DX2 analytically  !
 ! D4    D(3,1,5,4)           -120.1775         calculate D2E/DX2 analytically  !
 --------------------------------------------------------------------------------
 Trust Radius=3.00D-01 FncErr=1.00D-07 GrdErr=1.00D-07 EigMax=2.50D+02 EigMin=1.00D-04
 Number of steps in this run=      2 maximum allowed number of steps=      2.
 GradGradGradGradGradGradGradGradGradGradGradGradGradGradGradGradGradGrad

                          Input orientation:                          
 ---------------------------------------------------------------------
 Center     Atomic      Atomic             Coordinates (Angstroms)
 Number     Number       Type             X           Y           Z
 ---------------------------------------------------------------------
      1          6           0       -0.486118    1.100487   -0.047519
      2          1           0        0.606808    1.099798   -0.050249
      3          9           0       -0.941043    1.479159    1.182170
      4          1           0       -0.849217    0.096142   -0.279857
      5          1           0       -0.849080    1.800264   -0.804544
 ---------------------------------------------------------------------
                    Distance matrix (angstroms):
                    1          2          3          4          5
     1  C    0.000000
     2  H    1.092929   0.000000
     3  F    1.364729   2.014600   0.000000
     4  H    1.092946   1.783271   2.014619   0.000000
     5  H    1.092940   1.783038   2.014596   1.783068   0.000000
 Stoichiometry    CH3F
 Framework group  C1[X(CH3F)]
 Deg. of freedom     9
 Full point group                 C1      NOp   1
 Largest Abelian subgroup         C1      NOp   1
 Largest concise Abelian subgroup C1      NOp   1
                         Standard orientation:                         
 ---------------------------------------------------------------------
 Center     Atomic      Atomic             Coordinates (Angstroms)
 Number     Number       Type             X           Y           Z
 ---------------------------------------------------------------------
      1          6           0       -0.621202   -0.000002   -0.000033
      2          1           0       -0.988159    0.859767   -0.566278
      3          9           0        0.743526   -0.000001    0.000006
      4          1           0       -0.988175   -0.920407   -0.461243
      5          1           0       -0.988190    0.060658    1.027663
 ---------------------------------------------------------------------
 Rotational constants (GHZ):         157.7132931          26.2002131          26.1994991
 Standard basis: def2TZVP (5D, 7F)
 There are    90 symmetry adapted cartesian basis functions of A   symmetry.
 There are    80 symmetry adapted basis functions of A   symmetry.
    80 basis functions,   126 primitive gaussians,    90 cartesian basis functions
     9 alpha electrons        9 beta electrons
       nuclear repulsion energy        37.6362664888 Hartrees.
 NAtoms=    5 NActive=    5 NUniq=    5 SFac= 1.00D+00 NAtFMM=   60 NAOKFM=F Big=F
 Integral buffers will be    131072 words long.
 Raffenetti 2 integral format.
 Two-electron integral symmetry is turned on.
 One-electron integrals computed using PRISM.
   1 Symmetry operations used in ECPInt.
 ECPInt:  NShTT=     595 NPrTT=    1764 LenC2=     595 LenP2D=    1627.
 LDataN:  DoStor=T MaxTD1= 6 Len=  172
 NBasis=    80 RedAO= T EigKep=  1.98D-03  NBF=    80
 NBsUse=    80 1.00D-06 EigRej= -1.00D+00 NBFU=    80
 Initial guess from the checkpoint file:  "checkpoint.chk"
 B after Tr=     0.000000    0.000000    0.000000
         Rot=    1.000000   -0.000000    0.000000    0.000000 Ang=   0.00 deg.
 Keep R1 ints in memory in canonical form, NReq=8911030.
 Requested convergence on RMS density matrix=1.00D-08 within 128 cycles.
 Requested convergence on MAX density matrix=1.00D-06.
 Requested convergence on             energy=1.00D-06.
 No special actions if energy rises.
 SCF Done:  E(RM06) =  -139.733391734     A.U. after    1 cycles
            NFock=  1  Conv=0.10D-08     -V/T= 2.0034
 DoSCS=F DFT=T ScalE2(SS,OS)=  1.000000  1.000000
 Range of M.O.s used for correlation:     1    80
 NBasis=    80 NAE=     9 NBE=     9 NFC=     0 NFV=     0
 NROrb=     80 NOA=     9 NOB=     9 NVA=    71 NVB=    71
   1 Symmetry operations used in ECPInt.
 ECPInt:  NShTT=     595 NPrTT=    1764 LenC2=     595 LenP2D=    1627.
 LDataN:  DoStor=T MaxTD1= 7 Len=  274
 Symmetrizing basis deriv contribution to polar:
 IMax=3 JMax=2 DiffMx= 0.00D+00
 G2DrvN: will do     6 centers at a time, making    1 passes.
 Calling FoFCou, ICntrl=  3107 FMM=F I1Cent=   0 AccDes= 0.00D+00.
 End of G2Drv F.D. properties file   721 does not exist.
 End of G2Drv F.D. properties file   722 does not exist.
 End of G2Drv F.D. properties file   788 does not exist.
          IDoAtm=11111
          Differentiating once with respect to electric field.
                with respect to dipole field.
          Differentiating once with respect to nuclear coordinates.
 Keep R1 ints in memory in canonical form, NReq=8906669.
          There are    18 degrees of freedom in the 1st order CPHF.  IDoFFX=6 NUNeed=     3.
     15 vectors produced by pass  0 Test12= 3.55D-15 5.56D-09 XBig12= 7.14D+00 1.61D+00.
 AX will form    15 AO Fock derivatives at one time.
     15 vectors produced by pass  1 Test12= 3.55D-15 5.56D-09 XBig12= 8.47D-01 2.71D-01.
     15 vectors produced by pass  2 Test12= 3.55D-15 5.56D-09 XBig12= 3.92D-03 1.63D-02.
     15 vectors produced by pass  3 Test12= 3.55D-15 5.56D-09 XBig12= 1.95D-05 1.17D-03.
     15 vectors produced by pass  4 Test12= 3.55D-15 5.56D-09 XBig12= 1.08D-07 1.01D-04.
     13 vectors produced by pass  5 Test12= 3.55D-15 5.56D-09 XBig12= 3.00D-10 6.48D-06.
      6 vectors produced by pass  6 Test12= 3.55D-15 5.56D-09 XBig12= 6.09D-13 1.93D-07.
      1 vectors produced by pass  7 Test12= 3.55D-15 5.56D-09 XBig12= 1.78D-15 1.31D-08.
 InvSVY:  IOpt=1 It=  1 EMax= 1.11D-15
 Solved reduced A of dimension    95 with    15 vectors.
 Isotropic polarizability for W=    0.000000       15.03 Bohr**3.
 End of Minotr F.D. properties file   721 does not exist.
 End of Minotr F.D. properties file   722 does not exist.
 End of Minotr F.D. properties file   788 does not exist.

 **********************************************************************

            Population analysis using the SCF Density.

 **********************************************************************

 Orbital symmetries:
       Occupied  (A) (A) (A) (A) (A) (A) (A) (A) (A)
       Virtual   (A) (A) (A) (A) (A) (A) (A) (A) (A) (A) (A) (A)
                 (A) (A) (A) (A) (A) (A) (A) (A) (A) (A) (A) (A)
                 (A) (A) (A) (A) (A) (A) (A) (A) (A) (A) (A) (A)
                 (A) (A) (A) (A) (A) (A) (A) (A) (A) (A) (A) (A)
                 (A) (A) (A) (A) (A) (A) (A) (A) (A) (A) (A) (A)
                 (A) (A) (A) (A) (A) (A) (A) (A) (A) (A) (A)
 The electronic state is 1-A.
 Alpha  occ. eigenvalues --  -24.75780 -10.30947  -1.23450  -0.71333  -0.51439
 Alpha  occ. eigenvalues --   -0.50051  -0.50048  -0.36169  -0.36167
 Alpha virt. eigenvalues --    0.04815   0.08092   0.10447   0.10447   0.20840
 Alpha virt. eigenvalues --    0.20842   0.29625   0.32160   0.40555   0.40558
 Alpha virt. eigenvalues --    0.43033   0.54515   0.59065   0.59067   0.73115
 Alpha virt. eigenvalues --    0.73116   0.86971   0.86971   0.91026   1.00143
 Alpha virt. eigenvalues --    1.38510   1.40425   1.40428   1.48174   1.62264
 Alpha virt. eigenvalues --    1.67247   1.67249   1.85211   1.85215   1.87591
 Alpha virt. eigenvalues --    2.21066   2.21073   2.22657   2.22983   2.22993
 Alpha virt. eigenvalues --    2.38945   2.46329   2.46345   2.69834   2.69837
 Alpha virt. eigenvalues --    2.82870   2.90535   2.90537   3.20266   3.20268
 Alpha virt. eigenvalues --    3.24521   3.26189   3.40099   3.40105   3.50396
 Alpha virt. eigenvalues --    3.69365   3.69368   3.85649   3.97495   3.97513
 Alpha virt. eigenvalues --    4.10201   5.04269   6.92069   6.92240   7.01111
 Alpha virt. eigenvalues --    7.01113   7.27465   7.27465   7.33250   8.45113
 Alpha virt. eigenvalues --    8.45118   8.84241   8.84241   9.07588  22.20698
 Alpha virt. eigenvalues --   56.93344
          Condensed to atoms (all electrons):
               1          2          3          4          5
     1  C    4.560219   0.399240   0.204741   0.399238   0.399222
     2  H    0.399240   0.649580  -0.039303  -0.044487  -0.044510
     3  F    0.204741  -0.039303   9.188938  -0.039301  -0.039301
     4  H    0.399238  -0.044487  -0.039301   0.649579  -0.044507
     5  H    0.399222  -0.044510  -0.039301  -0.044507   0.649621
 Mulliken charges:
               1
     1  C    0.037340
     2  H    0.079480
     3  F   -0.275773
     4  H    0.079478
     5  H    0.079475
 Sum of Mulliken charges =  -0.00000
 Mulliken charges with hydrogens summed into heavy atoms:
               1
     1  C    0.275773
     3  F   -0.275773
 APT charges:
               1
     1  C    0.593319
     2  H   -0.026915
     3  F   -0.512412
     4  H   -0.026989
     5  H   -0.027003
 Sum of APT charges =   0.00000
 APT charges with hydrogens summed into heavy atoms:
               1
     1  C    0.512412
     3  F   -0.512412
 Electronic spatial extent (au):  <R**2>=             74.7368
 Charge=             -0.0000 electrons
 Dipole moment (field-independent basis, Debye):
    X=             -1.7132    Y=              0.0000    Z=              0.0000  Tot=              1.7132
 Quadrupole moment (field-independent basis, Debye-Ang):
   XX=            -12.4365   YY=            -11.8620   ZZ=            -11.8628
   XY=             -0.0000   XZ=             -0.0001   YZ=             -0.0000
 Traceless Quadrupole moment (field-independent basis, Debye-Ang):
   XX=             -0.3827   YY=              0.1918   ZZ=              0.1909
   XY=             -0.0000   XZ=             -0.0001   YZ=             -0.0000
 Octapole moment (field-independent basis, Debye-Ang**2):
  XXX=              4.5486  YYY=             -0.0971  ZZZ=              0.5438  XYY=              1.3202
  XXY=              0.0000  XXZ=              0.0002  XZZ=              1.3210  YZZ=              0.0972
  YYZ=             -0.5437  XYZ=              0.0000
 Hexadecapole moment (field-independent basis, Debye-Ang**3):
 XXXX=            -50.5573 YYYY=            -17.1536 ZZZZ=            -17.1533 XXXY=             -0.0001
 XXXZ=             -0.0002 YYYX=              0.1082 YYYZ=             -0.0001 ZZZX=             -0.6057
 ZZZY=             -0.0000 XXYY=            -11.2145 XXZZ=            -11.2150 YYZZ=             -5.7180
 XXYZ=             -0.0000 YYXZ=              0.6057 ZZXY=             -0.1082
 N-N= 3.763626648885D+01 E-N=-4.063415029277D+02  KE= 1.392533681714D+02
  Exact polarizability:      15.183      -0.000      14.947      -0.001       0.001      14.948
 Approx polarizability:      18.729       0.000      18.103      -0.001       0.000      18.101
   1 Symmetry operations used in ECPInt.
 ECPInt:  NShTT=     595 NPrTT=    1764 LenC2=     595 LenP2D=    1627.
 LDataN:  DoStor=T MaxTD1= 8 Len=  415
 Calling FoFJK, ICntrl=    100127 FMM=F ISym2X=0 I1Cent= 0 IOpClX= 0 NMat=1 NMatS=1 NMatT=0.
 Full mass-weighted force constant matrix:
 Low frequencies ---  -21.7444  -13.3499   -0.0002    0.0011    0.0012   15.4333
 Low frequencies --- 1119.5422 1195.0358 1195.4719
 Diagonal vibrational polarizability:
        2.7933616       0.1653493       0.1653570
 Harmonic frequencies (cm**-1), IR intensities (KM/Mole), Raman scattering
 activities (A**4/AMU), depolarization ratios for plane and unpolarized
 incident light, reduced masses (AMU), force constants (mDyne/A),
 and normal coordinates:
                      1                      2                      3
                      A                      A                      A
 Frequencies --   1119.5422              1195.0355              1195.4718
 Red. masses --      7.9141                 1.2718                 1.2720
 Frc consts  --      5.8443                 1.0701                 1.0711
 IR Inten    --    123.6539                 1.2350                 1.2244
  Atom  AN      X      Y      Z        X      Y      Z        X      Y      Z
     1   6     0.57  -0.00  -0.00     0.00   0.10   0.10     0.00  -0.10   0.10
     2   1     0.40  -0.03   0.02    -0.17  -0.19  -0.24     0.71   0.06  -0.12
     3   9    -0.43   0.00   0.00    -0.00  -0.04  -0.04     0.00   0.04  -0.04
     4   1     0.40   0.03   0.01     0.70  -0.06  -0.13    -0.21   0.17  -0.25
     5   1     0.40  -0.00  -0.03    -0.54  -0.22  -0.08    -0.50   0.22  -0.10
                      4                      5                      6
                      A                      A                      A
 Frequencies --   1468.8516              1469.3622              1480.6161
 Red. masses --      1.0438                 1.0439                 1.1431
 Frc consts  --      1.3268                 1.3280                 1.4765
 IR Inten    --      4.0536                 4.0455                 3.3884
  Atom  AN      X      Y      Z        X      Y      Z        X      Y      Z
     1   6     0.00   0.04  -0.04    -0.00  -0.04  -0.04    -0.11   0.00  -0.00
     2   1     0.34   0.19   0.02    -0.05   0.37   0.60     0.54   0.18  -0.13
     3   9     0.00   0.01  -0.01    -0.00  -0.01  -0.01    -0.02   0.00  -0.00
     4   1    -0.13  -0.25   0.63     0.34  -0.24   0.16     0.52  -0.19  -0.09
     5   1    -0.24  -0.56  -0.07    -0.27   0.45  -0.14     0.53  -0.00   0.22
                      7                      8                      9
                      A                      A                      A
 Frequencies --   3013.8408              3104.4037              3104.8203
 Red. masses --      1.0284                 1.1067                 1.1067
 Frc consts  --      5.5038                 6.2839                 6.2857
 IR Inten    --     32.6729                32.8707                32.8118
  Atom  AN      X      Y      Z        X      Y      Z        X      Y      Z
     1   6     0.04   0.00   0.00     0.00  -0.06  -0.07     0.00  -0.07   0.06
     2   1    -0.19   0.45  -0.30    -0.02   0.05  -0.06    -0.26   0.64  -0.42
     3   9     0.00  -0.00  -0.00     0.00   0.00   0.00     0.00   0.00  -0.00
     4   1    -0.19  -0.49  -0.25     0.24   0.63   0.30     0.11   0.28   0.16
     5   1    -0.19   0.03   0.54    -0.21   0.02   0.63     0.15  -0.04  -0.44

 -------------------
 - Thermochemistry -
 -------------------
 Temperature   298.150 Kelvin.  Pressure   1.00000 Atm.
 Atom     1 has atomic number  6 and mass  12.00000
 Atom     2 has atomic number  1 and mass   1.00783
 Atom     3 has atomic number  9 and mass  18.99840
 Atom     4 has atomic number  1 and mass   1.00783
 Atom     5 has atomic number  1 and mass   1.00783
 Molecular mass:    34.02188 amu.
 Principal axes and moments of inertia in atomic units:
                           1         2         3
     Eigenvalues --    11.44318  68.88269  68.88457
           X            1.00000  -0.00000  -0.00001
           Y            0.00000   1.00000  -0.00000
           Z            0.00001   0.00000   1.00000
 This molecule is an asymmetric top.
 Rotational symmetry number  1.
 Rotational temperatures (Kelvin)      7.56904     1.25741     1.25738
 Rotational constants (GHZ):         157.71329    26.20021    26.19950
 Zero-point vibrational energy     102591.4 (Joules/Mol)
                                   24.51994 (Kcal/Mol)
 Vibrational temperatures:   1610.77  1719.39  1720.02  2113.35  2114.08
          (Kelvin)           2130.28  4336.24  4466.54  4467.14
 
 Zero-point correction=                           0.039075 (Hartree/Particle)
 Thermal correction to Energy=                    0.041981
 Thermal correction to Enthalpy=                  0.042925
 Thermal correction to Gibbs Free Energy=         0.016641
 Sum of electronic and zero-point Energies=           -139.694317
 Sum of electronic and thermal Energies=              -139.691410
 Sum of electronic and thermal Enthalpies=            -139.690466
 Sum of electronic and thermal Free Energies=         -139.716751
 
                     E (Thermal)             CV                S
                      KCal/Mol        Cal/Mol-Kelvin    Cal/Mol-Kelvin
 Total                   26.344              6.889             55.321
 Electronic               0.000              0.000              0.000
 Translational            0.889              2.981             36.504
 Rotational               0.889              2.981             18.635
 Vibrational             24.566              0.927              0.182
                       Q            Log10(Q)             Ln(Q)
 Total Bot       0.221736D-07         -7.654164        -17.624363
 Total V=0       0.208485D+11         10.319075         23.760548
 Vib (Bot)       0.107773D-17        -17.967490        -41.371674
 Vib (V=0)       0.101332D+01          0.005748          0.013236
 Electronic      0.100000D+01          0.000000          0.000000
 Translational   0.779994D+07          6.892091         15.869627
 Rotational      0.263776D+04          3.421235          7.877685

     ==================================================
      Anharmonic Data: Displacement Vectors Definition
     ==================================================

 Framework definition based on atomic masses: C1  
 ***** Axes restored to original set *****
 -------------------------------------------------------------------
 Center     Atomic                   Forces (Hartrees/Bohr)
 Number     Number              X              Y              Z
 -------------------------------------------------------------------
      1        6           0.000064464   -0.000050550   -0.000229940
      2        1           0.000023253   -0.000017810    0.000010636
      3        9          -0.000079777    0.000064974    0.000221835
      4        1           0.000007074   -0.000016809    0.000006965
      5        1          -0.000015014    0.000020196   -0.000009496
 -------------------------------------------------------------------
 Cartesian Forces:  Max     0.000229940 RMS     0.000089983
 FormGI is forming the generalized inverse of G from B-inverse, IUseBI=4.
 NDeriv=      9 NFrqRd=  0 NDerD0=      0 MskFDP=       0 MskDFD=       0 MskDF0=       0
 At 1st pt F.D. properties file   721 does not exist.
 At 1st pt F.D. properties file   722 does not exist.
 D2Numr ... symmetry will not be used.
 Standard basis: def2TZVP (5D, 7F)
    80 basis functions,   126 primitive gaussians,    90 cartesian basis functions
     9 alpha electrons        9 beta electrons
       nuclear repulsion energy        37.6993968058 Hartrees.
 NAtoms=    5 NActive=    5 NUniq=    5 SFac= 1.00D+00 NAtFMM=   60 NAOKFM=F Big=F
 Integral buffers will be    131072 words long.
 Raffenetti 2 integral format.
 Two-electron integral symmetry is turned off.
 One-electron integrals computed using PRISM.
   1 Symmetry operations used in ECPInt.
[...]
 848822,0.00670679,-0.00522727,0.01057973,0.01486619,0.00180500,0.00348
 511,-0.00456110,0.00306722,-0.00527073,-0.00923697,-0.00097084,-0.0061
 3484,-0.00219577,0.04855145,-0.04040169,0.04325335,-0.02086552,0.00899
 336,-0.00978850,-0.00231714,-0.00179777,-0.00246017,-0.00062109,-0.000
 86721,0.00132589,-0.02474770,-0.03619017,-0.01759609,0.00236592,0.0067
 7991,-0.00139592,0.00897163,-0.00337526,0.00485286,-0.00215267,-0.0012
 8778,0.00432985,-0.00265927,0.03407330,0.00980930,0.03851805,0.0006631
 8,-0.00773437,-0.00712686,0.00894903,-0.00343145,-0.00025102,-0.001001
 39,0.01114746,0.00119040,-0.00208519,0.00112764,-0.03233057,-0.0065256
 2,-0.00110928,0.06168464,0.03123365,0.06697481,0.11049420,-0.08819381,
 -0.19162800,-0.01333637,-0.01868160,-0.06469904,0.01026866,-0.02089647
 ,-0.01247595,0.00764143,0.01531754,0.00060484,-0.07228837,0.00765232,0
 .00903514,0.05321474,0.00000580,0.00083052,0.01514648,-0.00885127,-0.0
 2879308,-0.01518366,0.00309161,0.01022379,-0.00573134,-0.00883595,0.01
 225771,0.02418503,0.00228284,0.00448857,-0.00465611,0.00460134,-0.0047
 4328,-0.02883202,0.02415221,0.08279204,0.00751354,-0.00465492,-0.00905
 693,0.01510244,-0.01279205,-0.04168378,-0.03111686,-0.03160122,0.00106
 646,0.00890525,0.00755130,0.00239290,0.00286256,-0.00184850,0.00395212
 ,0.01913304,-0.02821256,-0.01505079,0.05206425,0.00292370,0.00511342,0
 .00076076,-0.00306556,-0.01101105,-0.00967663,0.02661422,0.00984959,0.
 00415787,0.05836849,0.03137012,0.00117726,0.00065732,-0.00189378,0.002
 84465,-0.01196073,-0.01082555,-0.00938830,-0.04145592,-0.01894078,-0.0
 3237789,0.02790043,-0.01806854,0.00934611,-0.00506398,0.00645695,0.002
 90596,0.00380027,0.00226393,0.00021602,0.00174019,0.00120852,0.0199098
 0,0.02671133,-0.05170578,0.00430311,-0.00184247,0.00226912,-0.00376277
 ,0.00422387,-0.00099194,0.00297138,-0.00071580,0.01109884,-0.00560916,
 -0.02837692,0.03932976,-0.01353167,-0.00197921,0.06843070,0.00279350,-
 0.00364962,0.00108504,0.00062220,0.00522385,-0.02122578,0.00197682,-0.
 00169246,0.00028999,0.00813915,0.00209744,-0.04857996,-0.61778568,-0.0
 6545267,-0.64658171,-0.20744118,0.17128508,-0.13432800,0.58102024,0.00
 282244,0.00905094,-0.58500693,0.00177299,-0.05419369,-0.00187845,-0.00
 294645,0.05817398,0.00585622,-0.00189223,-0.06089567,-0.00960322,-0.00
 150548,0.05485811,0.00255079,0.00129040,0.00431564,-0.00327634,-0.0051
 4634,-0.01671183,0.00077281,0.00135111,0.00304331,-0.00356622,0.000846
 10,0.00166184,0.00226908,0.00288226,0.00165680,0.00441649,-0.00349205,
 -0.00741673,0.00273619,0.00226681,0.00839444,0.00927533,-0.00773887,-0
 .02107027,0.01749803,0.19911868,0.04540642,0.00364449,0.02273498,0.004
 21335,-0.00002138,-0.00878535,-0.00630722,-0.01688453,0.20048078,0.486
 89363,0.11581351,-0.00326675,-0.00343721,-0.00086430,-0.00012116,-0.00
 299017,-0.00351717,-0.20366116,-0.48956707,0.04667281,0.11849455,-0.03
 459547,-0.00018584,0.00018062,-0.00056537,0.00174275,0.01321311,0.0098
 3351,-0.04118419,-0.11674652,0.03063225,0.01671662,-0.13777886,0.14866
 818,0.00361853,-0.01641519,0.01624548,-0.00002589,0.00370588,-0.010120
 78,-0.00423661,0.00656828,-0.00704554,-0.01607265,-0.13815222,0.210838
 46,-0.28165391,0.00254465,-0.00220493,0.00199292,0.00109484,-0.0033717
 9,0.01248129,-0.00940715,0.00910082,-0.01514176,0.14391988,-0.21436256
 ,0.15049566,-0.28439534,0.23723588,-0.00199808,0.00093650,-0.00179150,
 0.00137811,-0.00417710,0.01025906,-0.00212835,0.00531448,-0.00530491,-
 0.14774734,0.28232147,-0.24039853,-0.08621128,0.48078861,0.45812570,-0
 .13262568,0.57120394,-0.37144228,0.08196164,-0.03079018,0.00794713,-0.
 07977112,-0.00567153,-0.01594884,-0.01097078,0.02313223,0.01190193,0.0
 0219773,-0.00591575,-0.00302316,-0.00652438,0.00410841,0.00475710,0.00
 227804,0.00657749,-0.00102380,-0.00072997,0.00041585,-0.00235857,-0.00
 138452,-0.01137782,-0.01588815,0.00254571,0.00022450,0.00074166,0.0014
 6755,-0.00291268,0.01125479,-0.00042306,-0.04646867,0.01363477,0.00109
 604,0.00130369,0.00030543,0.00225725,0.01635922,-0.01002690,-0.0093896
 1,-0.27984945,-0.06215219,-0.00836778,-0.01000642,-0.00312329,0.000993
 83,0.01104232,0.01058155,0.01644163,-0.28073106,-0.66042386,-0.1940382
 1,0.00449184,0.00750335,-0.00044541,-0.00295791,0.00635083,0.01081792,
 0.27168238,0.64233565,-0.05674318,-0.17233910,0.05029857,0.00044659,0.
 00233487,0.00207006,-0.00210331,-0.01507795,-0.01026733,0.05862654,0.1
 7699041,-0.03769255,0.01136121,-0.17672647,0.18785453,0.00690723,-0.00
 787014,0.00980851,-0.00115738,0.00302368,-0.01351178,0.00032193,0.0075
 1475,-0.00022665,-0.01743299,-0.18300820,0.23413515,-0.36874066,0.0029
 4162,-0.00419810,0.00078520,-0.00112275,-0.00245912,0.01798784,0.00713
 116,0.00423404,0.00809177,0.17405817,-0.23171196,0.18759419,-0.3464804
 1,0.31053210,-0.00296538,0.00322381,-0.00410943,0.00322842,-0.00529453
 ,0.00635403,-0.00393262,0.00667529,-0.00440875,-0.18392461,0.34187584,
 -0.30836795,-0.94437639,0.00626234,0.62622489,0.17286199,-0.18429705,0
 .31241049,0.88832471,-0.00225471,-0.01716561,-0.86442701,0.00174209,-0
 .10788479,0.00501436,-0.00002001,0.09581361,0.00392781,0.00451115,-0.0
 9896537,0.00722821,-0.00465621,0.08546826,0.02489400,0.00251614,0.0102
 6723,-0.00806585,-0.00688250,-0.02203494,-0.01516766,-0.01128281,-0.00
 965557,-0.00116872,0.00360386,0.00015741,0.00355989,0.00448004,0.00306
 686,-0.03996586,0.00331538,-0.01519514,0.01168680,0.00356200,0.0111099
 9,0.01344645,0.00092726,0.01212678,0.01626042,-0.12974491,-0.03117681,
 -0.00724555,0.01163844,0.00326605,-0.00093269,0.00441320,0.00533306,-0
 .01160350,-0.10621156,-0.31977412,-0.07109784,0.00185571,0.00755426,0.
 00049531,-0.00091084,0.00334881,0.00468431,0.10962833,0.31529488,-0.02
 267239,-0.07632078,0.01819733,-0.00184093,0.00220152,-0.00123451,-0.00
 030448,-0.00795867,-0.00378432,0.02179519,0.07122818,-0.01767332,0.014
 89727,0.12322114,-0.13478680,-0.00858630,-0.00647802,0.00761288,-0.000
 72780,-0.00121429,0.00949955,0.00352133,-0.00436163,0.00302262,-0.0091
 0450,0.10948994,-0.18891042,0.25154924,-0.00318485,0.00435951,-0.00391
 014,0.00079717,0.00308248,-0.01248896,0.00406494,-0.00642384,0.0108497
 4,-0.11116720,0.18789228,-0.11415155,0.25279129,-0.21644730,0.00009154
 ,-0.00612166,0.00362164,-0.00137425,0.00464023,-0.00425730,0.00078251,
 -0.00530997,0.00449483,0.11465175,-0.24599989,0.21258814,-0.01248771,-
 0.04307745,-0.02846418,-0.14016024,0.11672442,0.31449263,0.01057285,-0
 .00175230,-0.00590826,-0.00310601,-0.00137362,-0.00143642,-0.00028925,
 -0.00071413,-0.00091942,-0.00466979,-0.00028865,-0.00206445,-0.0020788
 2,0.00078713,0.00126047,0.00593490,0.04325065,0.14060145,-0.00625585,0
 .00194702,0.00631100,-0.00697048,0.04325055,0.02192222,-0.11704481,0.0
 0274004,0.00259543,-0.00085483,-0.04522618,-0.02367362,0.14062983,-0.1
 1704717,-0.32251319,0.00886922,-0.00085297,0.00000633,-0.14696361,0.12
 229250,0.33634441,-0.00205086,0.00137872,0.00249027,-0.00059784,-0.000
 05169,0.00025907,0.00365389,0.00012021,-0.00143531,-0.00136084,0.00083
 063,0.00836712,0.00731080,-0.00033359,-0.00040375,-0.00003195,0.001260
 82,-0.00439604,-0.00914047,-0.00144954,-0.00288983,0.00197104,0.006248
 58,0.00045286,-0.00038271,-0.00043161,0.00067773,-0.00037049,-0.006938
 97,-0.00289413,-0.00079194,0.00126898,0.00176779,-0.00196919,0.0002003
 7,0.00297678,-0.00061315,0.00019241,0.00017854,0.00363754,-0.00088462,
 -0.00110013,0.00035565,-0.00030832,-0.00042590,-0.00141084,0.00036988,
 -0.00038874,-0.00670116,0.00005998,0.00016415,0.00038830,-0.00123231,0
 .00355200,0.00474811,0.00000230,-0.00067750,-0.00014697,0.00080016,-0.
 00264991,0.00222915,-0.00563719,0.00963216,-0.00049943,0.00078670,0.00
 011993,0.00042165,0.00254611,-0.01094343,-0.00052210,0.00059265,-0.000
 00424,-0.00162928,0.00171173,0.00119559,-0.13993418,-0.04772336,-0.302
 76762,-0.07559917,0.07060562,-0.02880078,0.10726097,0.00536444,0.00022
 709,-0.10455592,0.00601445,-0.00870628,-0.00592443,-0.00719093,0.01436
 042,-0.00029420,-0.00705743,-0.00626431,-0.00307737,0.00473326,0.00960
 568,0.01242727,0.00042663,-0.00413106,0.00004963,-0.00157516,-0.000083
 35,-0.01742690,0.00720567,0.02521785,-0.00936563,-0.00003211,-0.000691
 00,0.00002216,-0.00206148,-0.00746076,0.00978125,-0.00147357,0.0053498
 9,0.00162671,0.00084133,-0.00093732,-0.00595839,0.01272277,0.01640252,
 0.00678169,0.08192878,0.02732988,-0.00011209,0.00729372,0.00146559,0.0
 0325697,-0.00608788,-0.00388282,-0.00842610,0.07663077,0.22415680,0.05
 670021,-0.00040349,-0.00337403,-0.00172589,0.00394336,-0.01541096,-0.0
 2413636,-0.08116816,-0.21148387,0.01956099,0.04300733,-0.05279288,0.00
 109070,-0.00137945,-0.00081422,0.00558721,-0.00115159,-0.00802366,-0.0
 2399991,-0.03099909,0.06848398,0.01346425,-0.03999650,0.05217325,-0.00
 264259,-0.00454207,0.00198933,0.00169303,0.00097581,-0.00156675,-0.001
 50047,0.00099753,-0.00223899,-0.01101421,-0.04212752,0.06209925,-0.112
 01577,0.00226210,-0.00158910,0.00402790,-0.00073335,-0.00165513,0.0120
 4582,-0.00196646,0.00611205,-0.00947719,0.04256524,-0.06496706,0.04655
 113,-0.10508195,0.08250809,0.00013287,0.00172929,-0.00158983,0.0045855
 8,-0.00222771,-0.01279144,-0.00091274,0.00016113,-0.00685322,-0.050356
 85,0.10541924,-0.06127359,-0.30535712,-0.00286482,-0.14998615,-0.09956
 695,0.07810046,-0.03792867,0.28336083,0.00133965,0.00276368,-0.2654482
 2,0.00525746,-0.01618155,-0.01041520,-0.00844155,0.01556228,0.01927488
 ,-0.00938580,-0.04637629,-0.02976009,0.01444947,0.05642277,0.02304063,
 0.00303414,0.01425746,-0.01852127,0.00081951,-0.00173392,-0.00386089,-
 0.00389135,0.01277202,0.00039121,0.00785696,0.00289932,-0.00278998,-0.
 00469115,-0.01653542,0.00098295,-0.00651094,0.00668472,0.02387292,-0.0
 0359362,-0.00512492,-0.01565750,0.00515243,0.01237112,-0.00064967,0.04
 236612,0.01349802,-0.00094433,0.00815126,0.00258727,-0.00086256,-0.001
 60122,-0.00209472,0.00363812,0.04085001,0.08679050,0.02184372,0.000510
 43,-0.00218484,-0.00153630,0.00060827,0.00005517,-0.00182339,-0.044636
 90,-0.08248935,0.01459224,0.02190520,-0.00004528,0.00106009,-0.0009105
 7,-0.00097704,0.00023192,-0.00018211,-0.00181345,-0.01186106,-0.019840
 34,0.00570843,-0.00039467,-0.04387509,0.06904779,0.00155300,-0.0057866
 8,0.00963186,0.00020409,0.00232676,-0.00710364,-0.00118156,0.00266818,
 -0.00402320,-0.00018086,-0.03935130,0.06660517,-0.08992019,-0.00126549
 ,-0.00009522,-0.00073739,0.00022923,0.00080890,0.00677551,-0.00427927,
 -0.00217149,-0.00097217,0.04466683,-0.06514735,0.06471688,-0.08410891,
 0.07766552,0.00206341,0.00046992,-0.00394453,0.00290204,-0.00257154,-0
 .01211748,-0.00212951,0.00135630,-0.00287266,-0.06755281,0.08485424,-0
 .05873085,-0.13564967,-0.04552291,-0.34768265,-0.07260296,0.05858672,-
 0.11128014,0.07328011,0.00011108,-0.00683439,-0.06779283,-0.01352648,0
 .01475302,-0.01047557,0.00829588,0.00218634,-0.00977241,-0.00949558,-0
 .00110783,0.00215185,0.00376032,-0.00046377,0.00490872,0.00165985,0.00
 126543,-0.00126854,-0.00091195,-0.00155174,0.00111288,0.00365118,0.022
 26753,-0.00159938,0.00016347,0.00072086,0.00109211,-0.00041740,-0.0078
 3461,0.00638612,0.00015020,0.01193951,0.00394069,0.00079173,0.00105446
 ,-0.00293841,-0.00566187,-0.01449508,0.02339740,0.12052282,0.00460960,
 -0.00272532,0.00658285,0.00528146,-0.00291786,-0.00431671,-0.00387731,
 -0.01515522,0.10617783,0.24762663,0.04433779,-0.01263798,-0.00976639,0
 .00172654,0.00038766,-0.01125652,-0.00438415,-0.10523253,-0.21546838,0
 .01192831,0.06803970,-0.01956851,0.00147513,0.00513472,0.00081611,0.00
 066417,0.00298991,0.00320498,-0.00745445,-0.06309502,0.01690647,0.0340
 6345,-0.07677084,0.07356232,-0.00149341,-0.00044030,0.00389083,-0.0018
 3521,0.00091946,-0.00351109,-0.00259899,0.01130502,-0.00661315,-0.0281
 3583,-0.05077962,0.06303547,-0.09084956,0.00406755,-0.00789384,0.00291
 661,-0.00071816,-0.00389728,0.00910409,-0.01755642,-0.01113535,-0.0130
 6931,0.06498666,-0.04010900,0.06406094,-0.11728104,0.12001698,-0.00073
 327,0.00078879,-0.00029897,0.00256055,0.00317923,-0.00170389,0.0014406
 9,0.02141484,-0.00135906,-0.06732891,0.09189818,-0.11665506,-0.3802394
 9,0.00280898,-0.17227216,-0.06727582,0.05936064,-0.09374398,0.35445510
 ,0.01076759,0.01740130,-0.32131370,0.01614978,-0.01212641,0.00286235,-
 0.01234234,0.01737211,-0.00203827,0.00160086,-0.00807358,0.00620170,-0
 .00387220,0.00825238,0.02255285,-0.00019755,0.00213292,-0.01206065,-0.
 00173152,-0.00588262,-0.01076594,-0.00205649,0.00727514,-0.00163122,0.
 00176304,-0.00259395,0.00093090,0.00211474,-0.00155297,-0.00170711,-0.
 00302815,0.00831363,0.00257440,0.00140956,0.00300812,0.00831814,0.0007
 6806,-0.00857544,0.00404492,0.00551547,0.01608290,-0.00988499,0.014726
 60,-0.00544350,0.00063037,-0.00271790,-0.00346600,0.01015551,0.0300525
 3,0.09645604,0.02471101,-0.01390621,-0.00145800,-0.00190400,-0.0005954
 7,-0.00131866,-0.00443460,-0.01845511,-0.09125634,0.01782453,0.0209978
 8,0.00870450,-0.00772565,-0.00229972,-0.00119177,-0.00136760,0.0017823
 1,-0.00031678,-0.00615435,-0.01900672,-0.00520284,-0.00081338,-0.01889
 449,0.03165869,-0.01119576,-0.01680252,0.00716268,-0.00035663,0.000896
 60,-0.00571943,-0.00494581,0.00290426,-0.00257693,0.01731159,-0.046954
 80,0.08066739,-0.08530277,0.01371793,-0.00119375,0.00324443,0.00040978
 ,-0.00180956,0.00528513,0.00093094,-0.00242305,-0.00147376,0.03189615,
 -0.07524103,0.05319667,-0.07893124,0.08479943,-0.01845176,0.00190001,-
 0.00199515,-0.00320084,-0.00185005,-0.00242953,-0.00101905,0.00063430,
 -0.00199311,-0.03052502,0.07824698,-0.07838163,-0.27672745,-0.02914916
 ,-0.27275785,-0.10797620,0.09399449,-0.04278184,0.24111919,0.00083375,
 -0.00755553,-0.22232102,-0.00047770,-0.00845794,-0.01230521,-0.0015149
 3,0.01167332,-0.01278608,-0.01239329,-0.03114706,0.00631129,0.01184736
 ,0.03364700,0.02160372,0.00584120,0.01857123,-0.00955038,-0.00193899,-
 0.00650088,-0.00957959,0.00549558,0.02359018,-0.01557687,0.00303933,-0
 .00073334,0.00036374,-0.00511354,-0.01163316,0.01841270,-0.01515810,-0
 .02206730,0.00958339,0.00031797,0.00028895,-0.01605892,0.01350601,0.02
 819811,0.00479053,0.05799238,0.02834240,-0.00456459,0.00531349,0.00545
 997,-0.00103748,-0.00553178,-0.00488948,-0.00073423,0.06073654,0.18475
 948,0.05277969,-0.00579855,-0.00317822,-0.00080380,0.00129644,-0.00805
 707,-0.00937702,-0.05645622,-0.16958578,0.03040467,0.05698296,-0.02218
 938,-0.00267905,-0.00470712,0.00059317,0.00168567,0.00423046,-0.000506
 85,-0.02722540,-0.04949886,0.02668827,0.00921400,-0.03551817,0.0686181
 0,-0.00468320,-0.00138188,0.00751570,-0.00143628,0.00211041,-0.0070476
 9,0.00154577,0.00022179,-0.00218590,-0.00464028,-0.03660527,0.07286612
 ,-0.11889210,0.00344039,0.00069618,0.00098599,-0.00008511,-0.00316662,
 0.01071114,-0.00131788,-0.00393840,-0.00700744,0.03456786,-0.06645727,
 0.07194492,-0.12342605,0.11818559,-0.00566010,0.00484701,-0.00338205,0
 .00230289,-0.00252334,-0.00591291,-0.00168750,0.00689998,-0.00458522,-
 0.06690021,0.11420241,-0.10430540,0.83661983,0.10974485,1.00147791,0.3
 4288874,-0.28578146,-0.00596022,-0.91680620,0.02796614,-0.01406815,0.9
 0816065,0.03178471,0.17658164,-0.00469709,-0.02773475,-0.18598064,-0.0
 0185867,-0.00453401,0.18405616,0.01536330,0.00708012,-0.18662839,-0.00
 202568,-0.00107859,-0.00264404,0.00612587,0.00190504,0.00635570,-0.001
 63321,-0.00075561,-0.00114563,0.00179570,-0.00218488,-0.00189097,0.000
 09056,0.00017720,-0.00162372,-0.00148785,0.00259756,0.00552867,-0.0078
 6596,-0.00008165,-0.00202185,0.00082226,-0.00084426,-0.00357917,0.0297
 7373,-0.37685681,-0.08237443,0.00042449,-0.02181827,-0.00431569,-0.001
 17786,0.00497240,0.00310609,-0.03478536,-0.38293841,-0.85052058,-0.209
 07640,0.00546040,0.00711732,0.00081707,-0.00056264,0.00397504,0.006594
 71,0.38407096,0.84283250,-0.08727909,-0.22091681,0.12347985,0.00126206
 ,0.00053789,0.00081370,-0.00205547,-0.00385185,-0.00114440,0.08010949,
 0.20928606,-0.13004996,0.05243832,0.24022441,-0.24380212,0.00209518,0.
 01586327,-0.01554465,-0.00128912,-0.00220912,0.00542546,0.00576501,-0.
 00603030,0.00796300,-0.05900938,0.24216446,-0.32639334,0.49775925,-0.0
 0350691,0.00417264,-0.00345375,-0.00044101,0.00068528,-0.00826636,0.00
 963172,-0.00340428,0.01494471,-0.24784826,0.32493971,-0.25226314,0.508
 63471,-0.30710446,0.00530875,-0.00283927,0.00378038,-0.00247845,0.0028
 0983,0.00121674,0.00347453,-0.00762143,0.00690081,0.24595831,-0.500983
 85,0.29520653,-0.19292898,0.32049317,1.88606081,0.56339316,-0.29715670
 ,0.27575634,-0.00149520,0.00610050,-0.01182378,0.01194375,0.00926252,-
 0.00973503,0.00299346,-0.00878428,-0.00603310,0.00156091,0.00282293,-0
 .00608655,0.00455937,-0.00056212,-0.00262776,-0.00989986,-0.00077495,-
 0.00254433,0.00047005,-0.00050009,-0.00088554,0.00550382,-0.00745879,-
 0.01109503,0.01262815,0.00047042,0.00153902,-0.00046420,0.00184001,-0.
 00025089,-0.02172859,0.01042062,0.02190516,0.00042628,-0.00053604,0.00
 079469,0.00678990,-0.00834072,-0.02154509,0.10040728,-0.67951042,-0.16
 466713,-0.00667569,-0.00200193,-0.00133394,0.00189221,0.00688559,0.006
 68707,-0.09249982,-0.67538479,-1.47645579,-0.46991030,0.00254206,0.007
 42872,-0.00264477,-0.00298087,0.00850911,0.00989209,0.67498353,1.45991
 394,-0.16072469,-0.46172934,0.22534272,0.00235723,0.00241197,0.0026019
 0,-0.00060971,-0.00458551,-0.00309477,0.16111337,0.46398818,-0.2187021
 6,0.10391676,0.35369170,-0.38435792,-0.00424290,0.00202377,-0.00390080
 ,0.00203378,-0.00173724,0.00782535,-0.00312398,0.00084008,-0.00213621,
 -0.09858366,0.35308788,-0.38877496,0.75144538,-0.00032870,0.00680038,0
 .00084816,0.00241589,0.00129780,-0.01143595,-0.00035676,0.00060402,-0.
 00008530,-0.35481831,0.38007276,-0.38250079,0.74564250,-0.51691766,0.0
 0448090,-0.00430728,0.00531771,-0.00275032,0.00076228,0.00194000,-0.00
 179937,-0.00132521,-0.00614769,0.38256958,-0.74077229,0.51580764,1.909
 10911,-0.10637109,0.12398154,0.11954041,-0.28666457,-0.26621571,-2.019
 19257,0.08026781,0.08483439,1.99472200,0.07588470,0.45649699,-0.019721
 16,-0.07738360,-0.44691804,0.06785161,-0.01942388,0.44304552,-0.075801
 08,0.02058817,-0.43168384,-0.01187347,-0.00807933,-0.02456743,0.014432
 05,0.00360413,0.01115809,-0.00270285,-0.00032865,-0.01099547,0.0085644
 9,-0.00470664,0.00145530,-0.00206883,0.00365338,0.00515227,-0.00239538
 ,0.01270487,0.02141983,-0.01568274,-0.00232898,-0.00613066,0.01158911,
 -0.00710629,-0.01820266,0.03804804,-0.11440945,-0.02506612,0.00461148,
 -0.00249143,-0.00208312,0.00025705,-0.00013777,0.00244875,-0.05015426,
 -0.11865248,-0.33374321,-0.07471371,0.00104768,-0.00700996,-0.00210475
 ,0.00044121,0.00227521,0.00171283,0.11761941,0.33945062,-0.02762292,-0
 .08290735,0.04244987,0.00262296,-0.00240276,-0.00023894,0.00106617,-0.
 00140294,0.00117189,0.02340238,0.08014002,-0.04820366,0.08390890,0.148
 59207,-0.15474125,0.00542705,0.00038619,-0.00112551,-0.00011277,0.0015
 1968,0.00404026,0.00723769,-0.00045581,0.00053141,-0.09646086,0.149467
 52,-0.23573985,0.37253495,0.00077475,-0.00402430,0.00300929,0.00038061
 ,0.00211269,-0.00498243,-0.00058076,-0.00097266,0.00657303,-0.15004213
 ,0.23862413,-0.15737373,0.37629094,-0.24069951,0.00402646,0.00386473,-
 0.00499208,0.00075407,0.00201357,0.00174161,0.00129811,-0.00503439,0.0
 0482084,0.15129508,-0.37713484,0.23912915\\@
 The archive entry for this job was punched.


 THESE ARE THE TIMES THAT TRY MENS SOULS.
 THE SUMMER SOLDIER AND THE SUNSHINE PATRIOT WILL IN THIS CRISIS,
 SHRINK FROM THE SERVICE OF HIS COUNTRY.  BUT HE THAT STANDS NOW,
 DESERVES THE LOVE AND THANKS OF MAN AND WOMAN.
 TYRANNY, LIKE HELL, IS NOT EASILY CONQUERED,
 YET WE HAVE THIS CONSOLATION WITH US,
 THAT THE HARDER THE CONFLICT, THE MORE GLORIOUS THE TRIUMPH.
 WHAT WE OBTAIN TOO CHEAP, WE ESTEEM TOO LIGHTLY, 
 'TIS DEARNESS ONLY THAT GIVES EVERYTHING ITS VALUE.

                                              -- TOM PAINE
 Job cpu time:       0 days  0 hours 40 minutes 41.4 seconds.
 Elapsed time:       0 days  0 hours 10 minutes 13.6 seconds.
 File lengths (MBytes):  RWF=     46 Int=      0 D2E=      0 Chk=     76 Scr=      1
 Normal termination of Gaussian 16 at Tue Jun 23 13:55:40 2020.
