 Entering Gaussian System, Link 0=g16
 Input=methanal.gjf
 Output=methanal.log
 Initial command:
 /apps/gaussian/g16c01/g16/l1.exe "/jobfs/7627943.gadi-pbs/Gau-43445.inp" -scrdir="/jobfs/7627943.gadi-pbs/"
 Entering Link 1 = /apps/gaussian/g16c01/g16/l1.exe PID=     43446.
  
 Copyright (c) 1988-2019, Gaussian, Inc.  All Rights Reserved.
  
 This is part of the Gaussian(R) 16 program.  It is based on
 the Gaussian(R) 09 system (copyright 2009, Gaussian, Inc.),
 the Gaussian(R) 03 system (copyright 2003, Gaussian, Inc.),
 the Gaussian(R) 98 system (copyright 1998, Gaussian, Inc.),
 the Gaussian(R) 94 system (copyright 1995, Gaussian, Inc.),
 the Gaussian 92(TM) system (copyright 1992, Gaussian, Inc.),
 the Gaussian 90(TM) system (copyright 1990, Gaussian, Inc.),
 the Gaussian 88(TM) system (copyright 1988, Gaussian, Inc.),
 the Gaussian 86(TM) system (copyright 1986, Carnegie Mellon
 University), and the Gaussian 82(TM) system (copyright 1983,
 Carnegie Mellon University). Gaussian is a federally registered
 trademark of Gaussian, Inc.
  
 This software contains proprietary and confidential information,
 including trade secrets, belonging to Gaussian, Inc.
  
 This software is provided under written license and may be
 used, copied, transmitted, or stored only in accord with that
 written license.
  
 The following legend is applicable only to US Government
 contracts under FAR:
  
                    RESTRICTED RIGHTS LEGEND
  
 Use, reproduction and disclosure by the US Government is
 subject to restrictions as set forth in subparagraphs (a)
 and (c) of the Commercial Computer Software - Restricted
 Rights clause in FAR 52.227-19.
  
 Gaussian, Inc.
 340 Quinnipiac St., Bldg. 40, Wallingford CT 06492
  
  
 ---------------------------------------------------------------
 Warning -- This program may not be used in any manner that
 competes with the business of Gaussian, Inc. or will provide
 assistance to any competitor of Gaussian, Inc.  The licensee
 of this program is prohibited from giving any competitor of
 Gaussian, Inc. access to this program.  By using this program,
 the user acknowledges that Gaussian, Inc. is engaged in the
 business of creating and licensing software in the field of
 computational chemistry and represents and warrants to the
 licensee that it is not a competitor of Gaussian, Inc. and that
 it will not use this program in any manner prohibited above.
 ---------------------------------------------------------------
  

 Cite this work as:
 Gaussian 16, Revision C.01,
 M. J. Frisch, G. W. Trucks, H. B. Schlegel, G. E. Scuseria, 
 M. A. Robb, J. R. Cheeseman, G. Scalmani, V. Barone, 
 G. A. Petersson, H. Nakatsuji, X. Li, M. Caricato, A. V. Marenich, 
 J. Bloino, B. G. Janesko, R. Gomperts, B. Mennucci, H. P. Hratchian, 
 J. V. Ortiz, A. F. Izmaylov, J. L. Sonnenberg, D. Williams-Young, 
 F. Ding, F. Lipparini, F. Egidi, J. Goings, B. Peng, A. Petrone, 
 T. Henderson, D. Ranasinghe, V. G. Zakrzewski, J. Gao, N. Rega, 
 G. Zheng, W. Liang, M. Hada, M. Ehara, K. Toyota, R. Fukuda, 
 J. Hasegawa, M. Ishida, T. Nakajima, Y. Honda, O. Kitao, H. Nakai, 
 T. Vreven, K. Throssell, J. A. Montgomery, Jr., J. E. Peralta, 
 F. Ogliaro, M. J. Bearpark, J. J. Heyd, E. N. Brothers, K. N. Kudin, 
 V. N. Staroverov, T. A. Keith, R. Kobayashi, J. Normand, 
 K. Raghavachari, A. P. Rendell, J. C. Burant, S. S. Iyengar, 
 J. Tomasi, M. Cossi, J. M. Millam, M. Klene, C. Adamo, R. Cammi, 
 J. W. Ochterski, R. L. Martin, K. Morokuma, O. Farkas, 
 J. B. Foresman, and D. J. Fox, Gaussian, Inc., Wallingford CT, 2019.
 
 ******************************************
 Gaussian 16:  ES64L-G16RevC.01  3-Jul-2019
                23-Jun-2020 
 ******************************************
 %NprocShared=4
 Will use up to    4 processors via shared memory.
 %chk=checkpoint.chk
 -------------------------------------------------------
 # M06/Def2TZVP Freq=(anharmonic,ReadAnharm) Opt=CalcAll
 -------------------------------------------------------
 1/10=4,18=20,19=15,26=3,38=1,80=1/1,3;
 2/9=110,12=2,17=6,18=5,40=1/2;
 3/5=44,7=101,11=2,25=1,30=1,71=2,74=-54,140=1/1,2,3;
 4//1;
 5/5=2,38=5/2;
 8/6=4,10=90,11=11/1;
 11/6=1,8=1,9=11,15=111,16=1/1,2,10;
 10/6=1/2;
 6/7=2,8=2,9=2,10=2,18=1,28=1/1;
 7/10=1,25=1/1,2,3,16;
 1/10=4,18=20,19=15,26=3,80=1/3(3);
 2/9=110/2;
 7/8=1,9=1,25=1,44=-1,71=2,72=1/16;
 99//99;
 2/9=110/2;
 3/5=44,7=101,11=2,25=1,30=1,71=2,74=-54,140=1/1,2,3;
 4/5=5,16=3,69=1/1;
 5/5=2,38=5/2;
 8/6=4,10=90,11=11/1;
 11/6=1,8=1,9=11,15=111,16=1/1,2,10;
 10/6=1/2;
 7/10=1,25=1/1,2,3,16;
 1/10=4,18=20,19=15,26=3,80=1/3(-8);
 2/9=110/2;
 6/7=2,8=2,9=2,10=2,18=1,19=2,28=1/1;
 7/8=1,9=1,25=1,44=-1,71=1,72=1/16;
 99//99;
 ----------------------------------------------
 Anharmonic frequencies for methanal using VPT2
 ----------------------------------------------
 Symbolic Z-matrix:
 Charge =  0 Multiplicity = 1
 C                    -0.09593   1.46711  -0.00063 
 O                    -0.50414   2.5894    0.27058 
 H                    -0.54473   0.85573  -0.7997 
 H                     0.74465   1.00141   0.53817 
 

 GradGradGradGradGradGradGradGradGradGradGradGradGradGradGradGradGradGrad
 Berny optimization.
 Initialization pass.
                           ----------------------------
                           !    Initial Parameters    !
                           ! (Angstroms and Degrees)  !
 --------------------------                            --------------------------
 ! Name  Definition              Value          Derivative Info.                !
 --------------------------------------------------------------------------------
 ! R1    R(1,2)                  1.2246         calculate D2E/DX2 analytically  !
 ! R2    R(1,3)                  1.1017         calculate D2E/DX2 analytically  !
 ! R3    R(1,4)                  1.1017         calculate D2E/DX2 analytically  !
 ! A1    A(2,1,3)              122.2361         calculate D2E/DX2 analytically  !
 ! A2    A(2,1,4)              122.2355         calculate D2E/DX2 analytically  !
 ! A3    A(3,1,4)              115.5284         calculate D2E/DX2 analytically  !
 ! D1    D(2,1,4,3)            180.0            calculate D2E/DX2 analytically  !
 --------------------------------------------------------------------------------
 Trust Radius=3.00D-01 FncErr=1.00D-07 GrdErr=1.00D-06 EigMax=2.50D+02 EigMin=1.00D-04
 Number of steps in this run=     20 maximum allowed number of steps=    100.
 GradGradGradGradGradGradGradGradGradGradGradGradGradGradGradGradGradGrad

                          Input orientation:                          
 ---------------------------------------------------------------------
 Center     Atomic      Atomic             Coordinates (Angstroms)
 Number     Number       Type             X           Y           Z
 ---------------------------------------------------------------------
      1          6           0       -0.095930    1.467110   -0.000630
      2          8           0       -0.504140    2.589400    0.270580
      3          1           0       -0.544730    0.855730   -0.799700
      4          1           0        0.744650    1.001410    0.538170
 ---------------------------------------------------------------------
                    Distance matrix (angstroms):
                    1          2          3          4
     1  C    0.000000
     2  O    1.224633   0.000000
     3  H    1.101690   2.037832   0.000000
     4  H    1.101706   2.037840   1.863765   0.000000
 Stoichiometry    CH2O
 Framework group  CS[SG(CH2O)]
 Deg. of freedom     5
 Full point group                 CS      NOp   2
 Largest Abelian subgroup         CS      NOp   2
 Largest concise Abelian subgroup C1      NOp   1
                         Standard orientation:                         
 ---------------------------------------------------------------------
 Center     Atomic      Atomic             Coordinates (Angstroms)
 Number     Number       Type             X           Y           Z
 ---------------------------------------------------------------------
      1          6           0        0.000001   -0.538860    0.000000
      2          8           0        0.000001    0.685773   -0.000000
      3          1           0        0.931874   -1.126511    0.000000
      4          1           0       -0.931891   -1.126510    0.000000
 ---------------------------------------------------------------------
 Rotational constants (GHZ):         288.7219469          37.7190157          33.3607264
 Standard basis: def2TZVP (5D, 7F)
 There are    60 symmetry adapted cartesian basis functions of A'  symmetry.
 There are    24 symmetry adapted cartesian basis functions of A"  symmetry.
 There are    52 symmetry adapted basis functions of A'  symmetry.
 There are    22 symmetry adapted basis functions of A"  symmetry.
    74 basis functions,   118 primitive gaussians,    84 cartesian basis functions
     8 alpha electrons        8 beta electrons
       nuclear repulsion energy        30.9440183591 Hartrees.
 NAtoms=    4 NActive=    4 NUniq=    4 SFac= 1.00D+00 NAtFMM=   60 NAOKFM=F Big=F
 Integral buffers will be    131072 words long.
 Raffenetti 2 integral format.
 Two-electron integral symmetry is turned on.
 One-electron integrals computed using PRISM.
   2 Symmetry operations used in ECPInt.
 ECPInt:  NShTT=     465 NPrTT=    1428 LenC2=     466 LenP2D=    1321.
 LDataN:  DoStor=T MaxTD1= 6 Len=  172
 NBasis=    74 RedAO= T EigKep=  1.56D-03  NBF=    52    22
 NBsUse=    74 1.00D-06 EigRej= -1.00D+00 NBFU=    52    22
 ExpMin= 9.52D-02 ExpMax= 2.70D+04 ExpMxC= 9.22D+02 IAcc=3 IRadAn=         5 AccDes= 0.00D+00
 Harris functional with IExCor= 1009 and IRadAn=       5 diagonalized for initial guess.
 HarFok:  IExCor= 1009 AccDes= 0.00D+00 IRadAn=         5 IDoV= 1 UseB2=F ITyADJ=14
 ICtDFT=  3500011 ScaDFX=  1.000000  1.000000  1.000000  1.000000
 FoFCou: FMM=F IPFlag=           0 FMFlag=      100000 FMFlg1=           0
         NFxFlg=           0 DoJE=T BraDBF=F KetDBF=T FulRan=T
         wScrn=  0.000000 ICntrl=       500 IOpCl=  0 I1Cent=   200000004 NGrid=           0
         NMat0=    1 NMatS0=      1 NMatT0=    0 NMatD0=    1 NMtDS0=    0 NMtDT0=    0
 Petite list used in FoFCou.
 Initial guess orbital symmetries:
       Occupied  (A') (A') (A') (A') (A') (A') (A") (A')
       Virtual   (A") (A') (A') (A') (A") (A') (A') (A') (A') (A')
                 (A') (A") (A") (A') (A') (A") (A') (A') (A') (A')
                 (A") (A") (A') (A') (A') (A') (A") (A") (A") (A')
                 (A') (A') (A') (A') (A') (A") (A') (A') (A") (A')
                 (A') (A") (A") (A') (A") (A') (A") (A') (A') (A')
                 (A') (A') (A") (A') (A") (A') (A") (A') (A') (A")
                 (A') (A") (A') (A') (A') (A')
 The electronic state of the initial guess is 1-A'.
 Keep R1 ints in memory in symmetry-blocked form, NReq=7501692.
 Requested convergence on RMS density matrix=1.00D-08 within 128 cycles.
 Requested convergence on MAX density matrix=1.00D-06.
 Requested convergence on             energy=1.00D-06.
 No special actions if energy rises.
 Integral accuracy reduced to 1.0D-05 until final iterations.
 Initial convergence to 1.0D-05 achieved.  Increase integral accuracy.
 SCF Done:  E(RM06) =  -114.483004262     A.U. after   12 cycles
            NFock= 12  Conv=0.62D-08     -V/T= 2.0046
 DoSCS=F DFT=T ScalE2(SS,OS)=  1.000000  1.000000
 Range of M.O.s used for correlation:     1    74
 NBasis=    74 NAE=     8 NBE=     8 NFC=     0 NFV=     0
 NROrb=     74 NOA=     8 NOB=     8 NVA=    66 NVB=    66
   2 Symmetry operations used in ECPInt.
 ECPInt:  NShTT=     465 NPrTT=    1428 LenC2=     466 LenP2D=    1321.
 LDataN:  DoStor=T MaxTD1= 7 Len=  274
 Symmetrizing basis deriv contribution to polar:
 IMax=3 JMax=2 DiffMx= 0.00D+00
 G2DrvN: will do     5 centers at a time, making    1 passes.
 Calling FoFCou, ICntrl=  3107 FMM=F I1Cent=   0 AccDes= 0.00D+00.
 End of G2Drv F.D. properties file   721 does not exist.
 End of G2Drv F.D. properties file   722 does not exist.
 End of G2Drv F.D. properties file   788 does not exist.
          IDoAtm=1111
          Differentiating once with respect to electric field.
                with respect to dipole field.
          Differentiating once with respect to nuclear coordinates.
 Keep R1 ints in memory in symmetry-blocked form, NReq=7491546.
          There are    15 degrees of freedom in the 1st order CPHF.  IDoFFX=6 NUNeed=     3.
     12 vectors produced by pass  0 Test12= 3.52D-15 6.67D-09 XBig12= 1.76D+01 3.08D+00.
 AX will form    12 AO Fock derivatives at one time.
     12 vectors produced by pass  1 Test12= 3.52D-15 6.67D-09 XBig12= 5.79D+00 9.08D-01.
     12 vectors produced by pass  2 Test12= 3.52D-15 6.67D-09 XBig12= 7.60D-02 9.15D-02.
     12 vectors produced by pass  3 Test12= 3.52D-15 6.67D-09 XBig12= 7.75D-04 7.74D-03.
     12 vectors produced by pass  4 Test12= 3.52D-15 6.67D-09 XBig12= 8.05D-06 9.42D-04.
     11 vectors produced by pass  5 Test12= 3.52D-15 6.67D-09 XBig12= 3.99D-08 8.09D-05.
      8 vectors produced by pass  6 Test12= 3.52D-15 6.67D-09 XBig12= 8.92D-11 3.46D-06.
      1 vectors produced by pass  7 Test12= 3.52D-15 6.67D-09 XBig12= 1.56D-13 1.12D-07.
      1 vectors produced by pass  8 Test12= 3.52D-15 6.67D-09 XBig12= 5.04D-16 8.59D-09.
 InvSVY:  IOpt=1 It=  1 EMax= 5.55D-16
 Solved reduced A of dimension    81 with    12 vectors.
 Isotropic polarizability for W=    0.000000       15.79 Bohr**3.
 End of Minotr F.D. properties file   721 does not exist.
 End of Minotr F.D. properties file   722 does not exist.
 End of Minotr F.D. properties file   788 does not exist.

 **********************************************************************

            Population analysis using the SCF Density.

 **********************************************************************

 Orbital symmetries:
       Occupied  (A') (A') (A') (A') (A') (A') (A") (A')
       Virtual   (A") (A') (A') (A') (A') (A") (A') (A') (A') (A')
                 (A') (A") (A") (A') (A') (A") (A') (A') (A') (A')
                 (A") (A') (A") (A') (A') (A') (A") (A") (A") (A')
                 (A') (A') (A') (A') (A') (A') (A") (A") (A') (A")
                 (A') (A') (A") (A') (A") (A') (A") (A') (A') (A')
                 (A') (A') (A") (A') (A") (A') (A") (A') (A') (A")
                 (A') (A") (A') (A') (A') (A')
 The electronic state is 1-A'.
 Alpha  occ. eigenvalues --  -19.23153 -10.34313  -1.07541  -0.65488  -0.51056
 Alpha  occ. eigenvalues --   -0.46868  -0.41640  -0.29036
 Alpha virt. eigenvalues --   -0.05313   0.05299   0.10597   0.11099   0.20841
 Alpha virt. eigenvalues --    0.21182   0.25907   0.37684   0.40438   0.40984
 Alpha virt. eigenvalues --    0.45499   0.50979   0.57504   0.58978   0.67902
 Alpha virt. eigenvalues --    0.77749   0.79604   0.92319   1.02916   1.28366
 Alpha virt. eigenvalues --    1.34075   1.44165   1.44569   1.47145   1.55903
 Alpha virt. eigenvalues --    1.62857   1.73346   1.89025   1.93432   1.93533
 Alpha virt. eigenvalues --    1.99014   2.13725   2.27876   2.38519   2.47339
 Alpha virt. eigenvalues --    2.53016   2.61071   2.84082   2.91356   2.92884
 Alpha virt. eigenvalues --    2.94790   2.98913   3.02309   3.11307   3.12488
 Alpha virt. eigenvalues --    3.19526   3.51345   3.61519   3.63046   3.78736
 Alpha virt. eigenvalues --    3.97223   4.24923   5.17106   5.17778   5.46289
 Alpha virt. eigenvalues --    5.57505   5.98364   6.16242   6.19758   6.33885
 Alpha virt. eigenvalues --    6.40963   6.77201   6.81245   6.99379  22.34102
 Alpha virt. eigenvalues --   43.45691
          Condensed to atoms (all electrons):
               1          2          3          4
     1  C    4.566955   0.493650   0.368597   0.368599
     2  O    0.493650   7.967404  -0.062972  -0.062973
     3  H    0.368597  -0.062972   0.740653  -0.112734
     4  H    0.368599  -0.062973  -0.112734   0.740654
 Mulliken charges:
               1
     1  C    0.202199
     2  O   -0.335109
     3  H    0.066456
     4  H    0.066454
 Sum of Mulliken charges =  -0.00000
 Mulliken charges with hydrogens summed into heavy atoms:
               1
     1  C    0.335109
     2  O   -0.335109
 APT charges:
               1
     1  C    0.660440
     2  O   -0.566482
     3  H   -0.046976
     4  H   -0.046981
 Sum of APT charges =  -0.00000
 APT charges with hydrogens summed into heavy atoms:
               1
     1  C    0.566482
     2  O   -0.566482
 Electronic spatial extent (au):  <R**2>=             61.1536
 Charge=             -0.0000 electrons
 Dipole moment (field-independent basis, Debye):
    X=              0.0000    Y=             -2.3908    Z=             -0.0000  Tot=              2.3908
 Quadrupole moment (field-independent basis, Debye-Ang):
   XX=            -11.6162   YY=            -12.1064   ZZ=            -11.5588
   XY=             -0.0000   XZ=             -0.0000   YZ=              0.0000
 Traceless Quadrupole moment (field-independent basis, Debye-Ang):
   XX=              0.1443   YY=             -0.3460   ZZ=              0.2017
   XY=             -0.0000   XZ=             -0.0000   YZ=              0.0000
 Octapole moment (field-independent basis, Debye-Ang**2):
  XXX=              0.0000  YYY=              0.7948  ZZZ=              0.0000  XYY=              0.0000
  XXY=             -0.2790  XXZ=              0.0000  XZZ=              0.0000  YZZ=              0.6906
  YYZ=              0.0000  XYZ=             -0.0000
 Hexadecapole moment (field-independent basis, Debye-Ang**3):
 XXXX=            -18.4466 YYYY=            -46.4393 ZZZZ=            -10.0782 XXXY=             -0.0001
 XXXZ=             -0.0000 YYYX=             -0.0002 YYYZ=             -0.0000 ZZZX=             -0.0000
 ZZZY=             -0.0000 XXYY=            -10.5183 XXZZ=             -5.0152 YYZZ=             -9.3274
 XXYZ=             -0.0000 YYXZ=             -0.0000 ZZXY=             -0.0000
 N-N= 3.094401835906D+01 E-N=-3.309020973320D+02  KE= 1.139583768465D+02
 Symmetry A'   KE= 1.102456613341D+02
 Symmetry A"   KE= 3.712715512372D+00
  Exact polarizability:      15.992       0.000      21.286      -0.000      -0.000      10.097
 Approx polarizability:      19.002       0.000      32.635       0.000       0.000      13.081
   2 Symmetry operations used in ECPInt.
 ECPInt:  NShTT=     465 NPrTT=    1428 LenC2=     466 LenP2D=    1321.
 LDataN:  DoStor=T MaxTD1= 8 Len=  415
 Calling FoFJK, ICntrl=    100127 FMM=F ISym2X=1 I1Cent= 0 IOpClX= 0 NMat=1 NMatS=1 NMatT=0.
 ***** Axes restored to original set *****
 -------------------------------------------------------------------
 Center     Atomic                   Forces (Hartrees/Bohr)
 Number     Number              X              Y              Z
 -------------------------------------------------------------------
      1        6          -0.018259245    0.050218292    0.012142063
      2        8           0.017475491   -0.048046583   -0.011611275
      3        1          -0.002157991   -0.001376130   -0.002912452
      4        1           0.002941745   -0.000795579    0.002381663
 -------------------------------------------------------------------
 Cartesian Forces:  Max     0.050218292 RMS     0.021949539
 FormGI is forming the generalized inverse of G from B-inverse, IUseBI=4.

 GradGradGradGradGradGradGradGradGradGradGradGradGradGradGradGradGradGrad
 Berny optimization.
 Internal  Forces:  Max     0.052427938 RMS     0.019926682
 Search for a local minimum.
 Step number   1 out of a maximum of   20
 All quantities printed in internal units (Hartrees-Bohrs-Radians)
 Mixed Optimization -- RFO/linear search
 Second derivative matrix not updated -- analytic derivatives used.
 The second derivative matrix:
                          R1        R2        R3        A1        A2
           R1           0.74908
           R2           0.03461   0.31404
           R3           0.03461   0.00445   0.31401
           A1           0.01727   0.00139  -0.00978   0.10821
           A2           0.01727  -0.00978   0.00139  -0.06771   0.10822
           A3          -0.03455   0.00840   0.00840  -0.04051  -0.04051
           D1           0.00000  -0.00000  -0.00000  -0.00000   0.00000
                          A3        D1
           A3           0.08101
           D1           0.00000   0.06738
 ITU=  0
     Eigenvalues ---    0.06738   0.11708   0.17500   0.31050   0.31485
     Eigenvalues ---    0.75714
 RFO step:  Lambda=-3.91399961D-03 EMin= 6.73804771D-02
 Linear search not attempted -- first point.
 Iteration  1 RMS(Cart)=  0.02086189 RMS(Int)=  0.00005558
 Iteration  2 RMS(Cart)=  0.00005879 RMS(Int)=  0.00000001
 Iteration  3 RMS(Cart)=  0.00000000 RMS(Int)=  0.00000000
 ClnCor:  largest displacement from symmetrization is 4.60D-09 for atom     1.
 Variable       Old X    -DE/DX   Delta X   Delta X   Delta X     New X
                                 (Linear)    (Quad)   (Total)
    R1        2.31422  -0.05243   0.00000  -0.07227  -0.07227   2.24195
    R2        2.08189   0.00376   0.00000   0.01987   0.01987   2.10176
    R3        2.08192   0.00375   0.00000   0.01984   0.01984   2.10176
    A1        2.13342  -0.00067   0.00000   0.00594   0.00594   2.13936
    A2        2.13341  -0.00067   0.00000   0.00595   0.00595   2.13936
    A3        2.01635   0.00134   0.00000  -0.01189  -0.01189   2.00446
    D1        3.14159  -0.00000   0.00000   0.00000   0.00000   3.14159
         Item               Value     Threshold  Converged?
 Maximum Force            0.052428     0.000450     NO 
 RMS     Force            0.019927     0.000300     NO 
 Maximum Displacement     0.039986     0.001800     NO 
 RMS     Displacement     0.020841     0.001200     NO 
 Predicted change in Energy=-1.969178D-03
 GradGradGradGradGradGradGradGradGradGradGradGradGradGradGradGradGradGrad

                          Input orientation:                          
 ---------------------------------------------------------------------
 Center     Atomic      Atomic             Coordinates (Angstroms)
 Number     Number       Type             X           Y           Z
 ---------------------------------------------------------------------
      1          6           0       -0.100978    1.480998    0.002729
      2          8           0       -0.496443    2.568240    0.265467
      3          1           0       -0.549751    0.858946   -0.802660
      4          1           0        0.747022    1.005466    0.542883
 ---------------------------------------------------------------------
                    Distance matrix (angstroms):
                    1          2          3          4
     1  C    0.000000
     2  O    1.186389   0.000000
     3  H    1.112204   2.016290   0.000000
     4  H    1.112206   2.016291   1.874453   0.000000
 Stoichiometry    CH2O
 Framework group  CS[SG(CH2O)]
 Deg. of freedom     5
 Full point group                 CS      NOp   2
 Largest Abelian subgroup         CS      NOp   2
 Largest concise Abelian subgroup C1      NOp   1
                         Standard orientation:                         
 ---------------------------------------------------------------------
 Center     Atomic      Atomic             Coordinates (Angstroms)
 Number     Number       Type             X           Y           Z
 ---------------------------------------------------------------------
      1          6           0        0.000000   -0.518340   -0.000000
      2          8           0        0.000000    0.668049    0.000000
      3          1           0        0.937226   -1.117177    0.000000
      4          1           0       -0.937227   -1.117177   -0.000000
 ---------------------------------------------------------------------
 Rotational constants (GHZ):         285.4386782          39.7469059          34.8887061
 Standard basis: def2TZVP (5D, 7F)
 There are    60 symmetry adapted cartesian basis functions of A'  symmetry.
 There are    24 symmetry adapted cartesian basis functions of A"  symmetry.
 There are    52 symmetry adapted basis functions of A'  symmetry.
 There are    22 symmetry adapted basis functions of A"  symmetry.
    74 basis functions,   118 primitive gaussians,    84 cartesian basis functions
     8 alpha electrons        8 beta electrons
       nuclear repulsion energy        31.6009447531 Hartrees.
 NAtoms=    4 NActive=    4 NUniq=    4 SFac= 1.00D+00 NAtFMM=   60 NAOKFM=F Big=F
 Integral buffers will be    131072 words long.
 Raffenetti 2 integral format.
 Two-electron integral symmetry is turned on.
 One-electron integrals computed using PRISM.
   2 Symmetry operations used in ECPInt.
 ECPInt:  NShTT=     465 NPrTT=    1428 LenC2=     466 LenP2D=    1322.
 LDataN:  DoStor=T MaxTD1= 6 Len=  172
 NBasis=    74 RedAO= T EigKep=  1.37D-03  NBF=    52    22
 NBsUse=    74 1.00D-06 EigRej= -1.00D+00 NBFU=    52    22
 Initial guess from the checkpoint file:  "checkpoint.chk"
 B after Tr=    -0.000000    0.000000    0.000000
         Rot=    1.000000    0.000000   -0.000000   -0.000001 Ang=  -0.00 deg.
 Initial guess orbital symmetries:
       Occupied  (A') (A') (A') (A') (A') (A') (A") (A')
       Virtual   (A") (A') (A') (A') (A') (A") (A') (A') (A') (A')
                 (A') (A") (A") (A') (A') (A") (A') (A') (A') (A')
                 (A") (A') (A") (A') (A') (A') (A") (A") (A") (A')
                 (A') (A') (A') (A') (A') (A') (A") (A") (A') (A")
                 (A') (A') (A") (A') (A") (A') (A") (A') (A') (A')
                 (A') (A') (A") (A') (A") (A') (A") (A') (A') (A")
                 (A') (A") (A') (A') (A') (A')
 ExpMin= 9.52D-02 ExpMax= 2.70D+04 ExpMxC= 9.22D+02 IAcc=3 IRadAn=         5 AccDes= 0.00D+00
 Harris functional with IExCor= 1009 and IRadAn=       5 diagonalized for initial guess.
 HarFok:  IExCor= 1009 AccDes= 0.00D+00 IRadAn=         5 IDoV= 1 UseB2=F ITyADJ=14
 ICtDFT=  3500011 ScaDFX=  1.000000  1.000000  1.000000  1.000000
 FoFCou: FMM=F IPFlag=           0 FMFlag=      100000 FMFlg1=           0
         NFxFlg=           0 DoJE=T BraDBF=F KetDBF=T FulRan=T
         wScrn=  0.000000 ICntrl=       500 IOpCl=  0 I1Cent=   200000004 NGrid=           0
         NMat0=    1 NMatS0=      1 NMatT0=    0 NMatD0=    1 NMtDS0=    0 NMtDT0=    0
 Petite list used in FoFCou.
 Keep R1 ints in memory in symmetry-blocked form, NReq=7501692.
 Requested convergence on RMS density matrix=1.00D-08 within 128 cycles.
 Requested convergence on MAX density matrix=1.00D-06.
 Requested convergence on             energy=1.00D-06.
 No special actions if energy rises.
 Integral accuracy reduced to 1.0D-05 until final iterations.
 Initial convergence to 1.0D-05 achieved.  Increase integral accuracy.
 SCF Done:  E(RM06) =  -114.484807887     A.U. after   12 cycles
            NFock= 12  Conv=0.50D-08     -V/T= 2.0035
 DoSCS=F DFT=T ScalE2(SS,OS)=  1.000000  1.000000
 Range of M.O.s used for correlation:     1    74
 NBasis=    74 NAE=     8 NBE=     8 NFC=     0 NFV=     0
 NROrb=     74 NOA=     8 NOB=     8 NVA=    66 NVB=    66
   2 Symmetry operations used in ECPInt.
 ECPInt:  NShTT=     465 NPrTT=    1428 LenC2=     466 LenP2D=    1322.
 LDataN:  DoStor=T MaxTD1= 7 Len=  274
 Symmetrizing basis deriv contribution to polar:
 IMax=3 JMax=2 DiffMx= 0.00D+00
 G2DrvN: will do     5 centers at a time, making    1 passes.
 Calling FoFCou, ICntrl=  3107 FMM=F I1Cent=   0 AccDes= 0.00D+00.
 End of G2Drv F.D. properties file   721 does not exist.
 End of G2Drv F.D. properties file   722 does not exist.
 End of G2Drv F.D. properties file   788 does not exist.
          IDoAtm=1111
          Differentiating once with respect to electric field.
                with respect to dipole field.
          Differentiating once with respect to nuclear coordinates.
 Keep R1 ints in memory in symmetry-blocked form, NReq=7491546.
          There are    15 degrees of freedom in the 1st order CPHF.  IDoFFX=6 NUNeed=     3.
     12 vectors produced by pass  0 Test12= 3.52D-15 6.67D-09 XBig12= 1.60D+01 2.80D+00.
 AX will form    12 AO Fock derivatives at one time.
     12 vectors produced by pass  1 Test12= 3.52D-15 6.67D-09 XBig12= 4.90D+00 8.30D-01.
     12 vectors produced by pass  2 Test12= 3.52D-15 6.67D-09 XBig12= 6.53D-02 8.40D-02.
     12 vectors produced by pass  3 Test12= 3.52D-15 6.67D-09 XBig12= 6.51D-04 6.92D-03.
     12 vectors produced by pass  4 Test12= 3.52D-15 6.67D-09 XBig12= 8.06D-06 9.41D-04.
     12 vectors produced by pass  5 Test12= 3.52D-15 6.67D-09 XBig12= 4.12D-08 8.73D-05.
      7 vectors produced by pass  6 Test12= 3.52D-15 6.67D-09 XBig12= 1.03D-10 3.46D-06.
      2 vectors produced by pass  7 Test12= 3.52D-15 6.67D-09 XBig12= 2.38D-13 1.38D-07.
 InvSVY:  IOpt=1 It=  1 EMax= 3.33D-16
 Solved reduced A of dimension    81 with    12 vectors.
 Isotropic polarizability for W=    0.000000       15.68 Bohr**3.
 End of Minotr F.D. properties file   721 does not exist.
 End of Minotr F.D. properties file   722 does not exist.
 End of Minotr F.D. properties file   788 does not exist.
   2 Symmetry operations used in ECPInt.
 ECPInt:  NShTT=     465 NPrTT=    1428 LenC2=     466 LenP2D=    1322.
 LDataN:  DoStor=T MaxTD1= 8 Len=  415
 Calling FoFJK, ICntrl=    100127 FMM=F ISym2X=1 I1Cent= 0 IOpClX= 0 NMat=1 NMatS=1 NMatT=0.
 ***** Axes restored to original set *****
 -------------------------------------------------------------------
 Center     Atomic                   Forces (Hartrees/Bohr)
 Number     Number              X              Y              Z
 -------------------------------------------------------------------
      1        6           0.002129770   -0.005854009   -0.001414186
      2        8          -0.002314580    0.006363395    0.001537738
      3        1          -0.000147030   -0.000281937   -0.000310330
      4        1           0.000331840   -0.000227449    0.000186778
 -------------------------------------------------------------------
 Cartesian Forces:  Max     0.006363395 RMS     0.002729684
 FormGI is forming the generalized inverse of G from B-inverse, IUseBI=4.

 GradGradGradGradGradGradGradGradGradGradGradGradGradGradGradGradGradGrad
 Berny optimization.
 Using GEDIIS/GDIIS optimizer.
 Internal  Forces:  Max     0.006943681 RMS     0.002635229
 Search for a local minimum.
 Step number   2 out of a maximum of   20
 All quantities printed in internal units (Hartrees-Bohrs-Radians)
 Mixed Optimization -- RFO/linear search
 Second derivative matrix not updated -- analytic derivatives used.
 DE= -1.80D-03 DEPred=-1.97D-03 R= 9.16D-01
 TightC=F SS=  1.41D+00  RLast= 7.89D-02 DXNew= 5.0454D-01 2.3667D-01
 Trust test= 9.16D-01 RLast= 7.89D-02 DXMaxT set to 3.00D-01
 The second derivative matrix:
                          R1        R2        R3        A1        A2
           R1           0.96060
           R2           0.03955   0.29430
           R3           0.03955   0.00570   0.29430
           A1           0.01807   0.00307  -0.01088   0.11337
           A2           0.01807  -0.01088   0.00307  -0.07149   0.11337
           A3          -0.03615   0.00781   0.00781  -0.04187  -0.04187
           D1           0.00000   0.00000   0.00000  -0.00000   0.00000
                          A3        D1
           A3           0.08375
           D1          -0.00000   0.07082
 ITU=  1  0
 Use linear search instead of GDIIS.
     Eigenvalues ---    0.07082   0.12173   0.18302   0.29044   0.29699
     Eigenvalues ---    0.96750
 RFO step:  Lambda=-5.80588958D-06 EMin= 7.08217399D-02
 Quintic linear search produced a step of -0.09879.
 Iteration  1 RMS(Cart)=  0.00251639 RMS(Int)=  0.00000018
 Iteration  2 RMS(Cart)=  0.00000016 RMS(Int)=  0.00000000
 ClnCor:  largest displacement from symmetrization is 6.43D-09 for atom     1.
 Variable       Old X    -DE/DX   Delta X   Delta X   Delta X     New X
                                 (Linear)    (Quad)   (Total)
    R1        2.24195   0.00694   0.00714   0.00025   0.00739   2.24934
    R2        2.10176   0.00044  -0.00196   0.00307   0.00110   2.10287
    R3        2.10176   0.00044  -0.00196   0.00306   0.00110   2.10286
    A1        2.13936   0.00003  -0.00059   0.00024  -0.00035   2.13901
    A2        2.13936   0.00003  -0.00059   0.00024  -0.00035   2.13901
    A3        2.00446  -0.00007   0.00117  -0.00048   0.00070   2.00516
    D1        3.14159  -0.00000  -0.00000   0.00000   0.00000   3.14159
         Item               Value     Threshold  Converged?
 Maximum Force            0.006944     0.000450     NO 
 RMS     Force            0.002635     0.000300     NO 
 Maximum Displacement     0.005070     0.001800     NO 
 RMS     Displacement     0.002516     0.001200     NO 
 Predicted change in Energy=-2.519265D-05
 GradGradGradGradGradGradGradGradGradGradGradGradGradGradGradGradGradGrad

                          Input orientation:                          
 ---------------------------------------------------------------------
 Center     Atomic      Atomic             Coordinates (Angstroms)
 Number     Number       Type             X           Y           Z
 ---------------------------------------------------------------------
      1          6           0       -0.100649    1.480095    0.002512
      2          8           0       -0.497419    2.570923    0.266116
      3          1           0       -0.549912    0.858001   -0.803379
      4          1           0        0.747830    1.004631    0.543171
 ---------------------------------------------------------------------
                    Distance matrix (angstroms):
                    1          2          3          4
     1  C    0.000000
     2  O    1.190302   0.000000
     3  H    1.112789   2.020069   0.000000
     4  H    1.112788   2.020069   1.875855   0.000000
 Stoichiometry    CH2O
 Framework group  CS[SG(CH2O)]
 Deg. of freedom     5
 Full point group                 CS      NOp   2
 Largest Abelian subgroup         CS      NOp   2
 Largest concise Abelian subgroup C1      NOp   1
                         Standard orientation:                         
 ---------------------------------------------------------------------
 Center     Atomic      Atomic             Coordinates (Angstroms)
 Number     Number       Type             X           Y           Z
 ---------------------------------------------------------------------
      1          6           0       -0.000000   -0.520298   -0.000000
      2          8           0       -0.000000    0.670004    0.000000
      3          1           0        0.937928   -1.119122    0.000000
      4          1           0       -0.937927   -1.119122   -0.000000
 ---------------------------------------------------------------------
 Rotational constants (GHZ):         285.0122684          39.5155756          34.7040294
 Standard basis: def2TZVP (5D, 7F)
 There are    60 symmetry adapted cartesian basis functions of A'  symmetry.
 There are    24 symmetry adapted cartesian basis functions of A"  symmetry.
 There are    52 symmetry adapted basis functions of A'  symmetry.
 There are    22 symmetry adapted basis functions of A"  symmetry.
    74 basis functions,   118 primitive gaussians,    84 cartesian basis functions
     8 alpha electrons        8 beta electrons
       nuclear repulsion energy        31.5195084181 Hartrees.
 NAtoms=    4 NActive=    4 NUniq=    4 SFac= 1.00D+00 NAtFMM=   60 NAOKFM=F Big=F
 Integral buffers will be    131072 words long.
 Raffenetti 2 integral format.
 Two-electron integral symmetry is turned on.
 One-electron integrals computed using PRISM.
   2 Symmetry operations used in ECPInt.
 ECPInt:  NShTT=     465 NPrTT=    1428 LenC2=     466 LenP2D=    1322.
 LDataN:  DoStor=T MaxTD1= 6 Len=  172
 NBasis=    74 RedAO= T EigKep=  1.39D-03  NBF=    52    22
 NBsUse=    74 1.00D-06 EigRej= -1.00D+00 NBFU=    52    22
 Initial guess from the checkpoint file:  "checkpoint.chk"
 B after Tr=    -0.000000   -0.000000   -0.000000
         Rot=    1.000000    0.000000    0.000000   -0.000000 Ang=  -0.00 deg.
 Initial guess orbital symmetries:
       Occupied  (A') (A') (A') (A') (A') (A') (A") (A')
       Virtual   (A") (A') (A') (A') (A') (A") (A') (A') (A') (A')
                 (A') (A") (A") (A') (A') (A") (A') (A') (A') (A')
                 (A") (A') (A') (A") (A') (A') (A") (A") (A') (A")
                 (A') (A') (A') (A') (A') (A') (A") (A") (A") (A')
                 (A') (A") (A') (A') (A") (A') (A") (A') (A') (A')
                 (A') (A') (A") (A') (A") (A') (A") (A') (A') (A")
                 (A') (A") (A') (A') (A') (A')
 Keep R1 ints in memory in symmetry-blocked form, NReq=7501692.
 Requested convergence on RMS density matrix=1.00D-08 within 128 cycles.
 Requested convergence on MAX density matrix=1.00D-06.
 Requested convergence on             energy=1.00D-06.
 No special actions if energy rises.
 SCF Done:  E(RM06) =  -114.484833305     A.U. after    8 cycles
            NFock=  8  Conv=0.32D-08     -V/T= 2.0037
 DoSCS=F DFT=T ScalE2(SS,OS)=  1.000000  1.000000
 Range of M.O.s used for correlation:     1    74
 NBasis=    74 NAE=     8 NBE=     8 NFC=     0 NFV=     0
 NROrb=     74 NOA=     8 NOB=     8 NVA=    66 NVB=    66
   2 Symmetry operations used in ECPInt.
 ECPInt:  NShTT=     465 NPrTT=    1428 LenC2=     466 LenP2D=    1322.
 LDataN:  DoStor=T MaxTD1= 7 Len=  274
 Symmetrizing basis deriv contribution to polar:
 IMax=3 JMax=2 DiffMx= 0.00D+00
 G2DrvN: will do     5 centers at a time, making    1 passes.
 Calling FoFCou, ICntrl=  3107 FMM=F I1Cent=   0 AccDes= 0.00D+00.
 End of G2Drv F.D. properties file   721 does not exist.
 End of G2Drv F.D. properties file   722 does not exist.
 End of G2Drv F.D. properties file   788 does not exist.
          IDoAtm=1111
          Differentiating once with respect to electric field.
                with respect to dipole field.
          Differentiating once with respect to nuclear coordinates.
 Keep R1 ints in memory in symmetry-blocked form, NReq=7491546.
          There are    15 degrees of freedom in the 1st order CPHF.  IDoFFX=6 NUNeed=     3.
     12 vectors produced by pass  0 Test12= 3.52D-15 6.67D-09 XBig12= 1.61D+01 2.82D+00.
 AX will form    12 AO Fock derivatives at one time.
     12 vectors produced by pass  1 Test12= 3.52D-15 6.67D-09 XBig12= 4.99D+00 8.38D-01.
     12 vectors produced by pass  2 Test12= 3.52D-15 6.67D-09 XBig12= 6.62D-02 8.36D-02.
     12 vectors produced by pass  3 Test12= 3.52D-15 6.67D-09 XBig12= 6.67D-04 7.06D-03.
     12 vectors produced by pass  4 Test12= 3.52D-15 6.67D-09 XBig12= 8.26D-06 9.49D-04.
     12 vectors produced by pass  5 Test12= 3.52D-15 6.67D-09 XBig12= 4.22D-08 8.84D-05.
      7 vectors produced by pass  6 Test12= 3.52D-15 6.67D-09 XBig12= 1.04D-10 3.56D-06.
      2 vectors produced by pass  7 Test12= 3.52D-15 6.67D-09 XBig12= 2.31D-13 1.39D-07.
 InvSVY:  IOpt=1 It=  1 EMax= 1.11D-15
 Solved reduced A of dimension    81 with    12 vectors.
 Isotropic polarizability for W=    0.000000       15.71 Bohr**3.
 End of Minotr F.D. properties file   721 does not exist.
 End of Minotr F.D. properties file   722 does not exist.
 End of Minotr F.D. properties file   788 does not exist.
   2 Symmetry operations used in ECPInt.
 ECPInt:  NShTT=     465 NPrTT=    1428 LenC2=     466 LenP2D=    1322.
 LDataN:  DoStor=T MaxTD1= 8 Len=  415
 Calling FoFJK, ICntrl=    100127 FMM=F ISym2X=1 I1Cent= 0 IOpClX= 0 NMat=1 NMatS=1 NMatT=0.
 ***** Axes restored to original set *****
 -------------------------------------------------------------------
 Center     Atomic                   Forces (Hartrees/Bohr)
 Number     Number              X              Y              Z
 -------------------------------------------------------------------
      1        6           0.000066086   -0.000182274   -0.000044254
      2        8           0.000039059   -0.000107316   -0.000025909
      3        1           0.000031940    0.000154403    0.000122807
      4        1          -0.000137085    0.000135187   -0.000052644
 -------------------------------------------------------------------
 Cartesian Forces:  Max     0.000182274 RMS     0.000105295
 FormGI is forming the generalized inverse of G from B-inverse, IUseBI=4.

 GradGradGradGradGradGradGradGradGradGradGradGradGradGradGradGradGradGrad
 Berny optimization.
 Using GEDIIS/GDIIS optimizer.
 Internal  Forces:  Max     0.000188151 RMS     0.000118202
 Search for a local minimum.
 Step number   3 out of a maximum of   20
 All quantities printed in internal units (Hartrees-Bohrs-Radians)
 Mixed Optimization -- En-DIIS/RFO-DIIS
 Second derivative matrix not updated -- analytic derivatives used.
 DE= -2.54D-05 DEPred=-2.52D-05 R= 1.01D+00
 TightC=F SS=  1.41D+00  RLast= 7.60D-03 DXNew= 5.0454D-01 2.2814D-02
 Trust test= 1.01D+00 RLast= 7.60D-03 DXMaxT set to 3.00D-01
 The second derivative matrix:
                          R1        R2        R3        A1        A2
           R1           0.93611
           R2           0.03902   0.29339
           R3           0.03902   0.00558   0.29339
           A1           0.01796   0.00291  -0.01075   0.11274
           A2           0.01796  -0.01075   0.00291  -0.07103   0.11274
           A3          -0.03592   0.00784   0.00784  -0.04171  -0.04171
           D1           0.00000  -0.00000   0.00000   0.00000   0.00000
                          A3        D1
           A3           0.08342
           D1          -0.00000   0.07042
 ITU=  1  1  0
 Use linear search instead of GDIIS.
     Eigenvalues ---    0.07042   0.12118   0.18201   0.28957   0.29594
     Eigenvalues ---    0.94308
 RFO step:  Lambda=-3.41750493D-07 EMin= 7.04223276D-02
 Quintic linear search produced a step of -0.02239.
 Iteration  1 RMS(Cart)=  0.00041884 RMS(Int)=  0.00000015
 Iteration  2 RMS(Cart)=  0.00000017 RMS(Int)=  0.00000000
 ClnCor:  largest displacement from symmetrization is 3.67D-10 for atom     1.
 Variable       Old X    -DE/DX   Delta X   Delta X   Delta X     New X
                                 (Linear)    (Quad)   (Total)
    R1        2.24934  -0.00012  -0.00017   0.00014  -0.00002   2.24932
    R2        2.10287  -0.00019  -0.00002  -0.00064  -0.00066   2.10221
    R3        2.10286  -0.00019  -0.00002  -0.00063  -0.00066   2.10221
    A1        2.13901  -0.00005   0.00001  -0.00042  -0.00041   2.13860
    A2        2.13901  -0.00005   0.00001  -0.00042  -0.00042   2.13860
    A3        2.00516   0.00009  -0.00002   0.00085   0.00083   2.00599
    D1        3.14159  -0.00000   0.00000   0.00000   0.00000  -3.14159
         Item               Value     Threshold  Converged?
 Maximum Force            0.000188     0.000450     YES
 RMS     Force            0.000118     0.000300     YES
 Maximum Displacement     0.000515     0.001800     YES
 RMS     Displacement     0.000419     0.001200     YES
 Predicted change in Energy=-1.840552D-07
 Optimization completed.
    -- Stationary point found.
                           ----------------------------
                           !   Optimized Parameters   !
                           ! (Angstroms and Degrees)  !
 --------------------------                            --------------------------
 ! Name  Definition              Value          Derivative Info.                !
 --------------------------------------------------------------------------------
 ! R1    R(1,2)                  1.1903         -DE/DX =   -0.0001              !
 ! R2    R(1,3)                  1.1128         -DE/DX =   -0.0002              !
 ! R3    R(1,4)                  1.1128         -DE/DX =   -0.0002              !
 ! A1    A(2,1,3)              122.5563         -DE/DX =    0.0                 !
 ! A2    A(2,1,4)              122.5564         -DE/DX =    0.0                 !
 ! A3    A(3,1,4)              114.8873         -DE/DX =    0.0001              !
 ! D1    D(2,1,4,3)           -180.0            -DE/DX =    0.0                 !
 --------------------------------------------------------------------------------
 GradGradGradGradGradGradGradGradGradGradGradGradGradGradGradGradGradGrad

                          Input orientation:                          
 ---------------------------------------------------------------------
 Center     Atomic      Atomic             Coordinates (Angstroms)
 Number     Number       Type             X           Y           Z
 ---------------------------------------------------------------------
      1          6           0       -0.100649    1.480095    0.002512
      2          8           0       -0.497419    2.570923    0.266116
      3          1           0       -0.549912    0.858001   -0.803379
      4          1           0        0.747830    1.004631    0.543171
 ---------------------------------------------------------------------
                    Distance matrix (angstroms):
                    1          2          3          4
     1  C    0.000000
     2  O    1.190302   0.000000
     3  H    1.112789   2.020069   0.000000
     4  H    1.112788   2.020069   1.875855   0.000000
 Stoichiometry    CH2O
 Framework group  CS[SG(CH2O)]
 Deg. of freedom     5
 Full point group                 CS      NOp   2
 Largest Abelian subgroup         CS      NOp   2
 Largest concise Abelian subgroup C1      NOp   1
                         Standard orientation:                         
 ---------------------------------------------------------------------
 Center     Atomic      Atomic             Coordinates (Angstroms)
 Number     Number       Type             X           Y           Z
 ---------------------------------------------------------------------
      1          6           0       -0.000000   -0.520298   -0.000000
      2          8           0       -0.000000    0.670004    0.000000
      3          1           0        0.937928   -1.119122    0.000000
      4          1           0       -0.937927   -1.119122   -0.000000
 ---------------------------------------------------------------------
 Rotational constants (GHZ):         285.0122684          39.5155756          34.7040294

 **********************************************************************

            Population analysis using the SCF Density.

 **********************************************************************

 Orbital symmetries:
       Occupied  (A') (A') (A') (A') (A') (A') (A") (A')
       Virtual   (A") (A') (A') (A') (A') (A") (A') (A') (A') (A')
                 (A') (A") (A") (A') (A') (A") (A') (A') (A') (A')
                 (A") (A') (A') (A") (A') (A') (A") (A") (A') (A")
                 (A') (A') (A') (A') (A') (A') (A") (A") (A") (A')
                 (A') (A") (A') (A') (A") (A') (A") (A') (A') (A')
                 (A') (A') (A") (A') (A") (A') (A") (A') (A') (A")
                 (A') (A") (A') (A') (A') (A')
 The electronic state is 1-A'.
 Alpha  occ. eigenvalues --  -19.23000 -10.33953  -1.09349  -0.64753  -0.51374
 Alpha  occ. eigenvalues --   -0.47371  -0.42830  -0.28860
 Alpha virt. eigenvalues --   -0.04399   0.05341   0.10941   0.11183   0.21066
 Alpha virt. eigenvalues --    0.21113   0.25668   0.37793   0.40355   0.40549
 Alpha virt. eigenvalues --    0.48596   0.50934   0.57589   0.59162   0.68221
 Alpha virt. eigenvalues --    0.78668   0.79305   0.93054   1.06131   1.29162
 Alpha virt. eigenvalues --    1.33798   1.43952   1.44003   1.44342   1.57483
 Alpha virt. eigenvalues --    1.63325   1.73392   1.90077   1.93983   1.94104
 Alpha virt. eigenvalues --    1.99256   2.16476   2.26973   2.39020   2.47535
 Alpha virt. eigenvalues --    2.52765   2.62465   2.84189   2.92908   2.93477
 Alpha virt. eigenvalues --    2.96070   3.01144   3.01577   3.11273   3.12923
 Alpha virt. eigenvalues --    3.20053   3.55195   3.64646   3.65178   3.77775
 Alpha virt. eigenvalues --    3.93790   4.28854   5.17223   5.18161   5.50364
 Alpha virt. eigenvalues --    5.62947   6.06017   6.23650   6.30113   6.34346
 Alpha virt. eigenvalues --    6.41799   6.76865   6.81474   7.02951  22.34395
 Alpha virt. eigenvalues --   43.49454
          Condensed to atoms (all electrons):
               1          2          3          4
     1  C    4.568876   0.508450   0.366328   0.366327
     2  O    0.508450   7.923262  -0.065998  -0.065998
     3  H    0.366328  -0.065998   0.764130  -0.119308
     4  H    0.366327  -0.065998  -0.119308   0.764130
 Mulliken charges:
               1
     1  C    0.190019
     2  O   -0.299715
     3  H    0.054848
     4  H    0.054848
 Sum of Mulliken charges =  -0.00000
 Mulliken charges with hydrogens summed into heavy atoms:
               1
     1  C    0.299715
     2  O   -0.299715
 APT charges:
               1
     1  C    0.715397
     2  O   -0.584978
     3  H   -0.065210
     4  H   -0.065209
 Sum of APT charges =  -0.00000
 APT charges with hydrogens summed into heavy atoms:
               1
     1  C    0.584978
     2  O   -0.584978
 Electronic spatial extent (au):  <R**2>=             60.1448
 Charge=             -0.0000 electrons
 Dipole moment (field-independent basis, Debye):
    X=             -0.0000    Y=             -2.2192    Z=             -0.0000  Tot=              2.2192
 Quadrupole moment (field-independent basis, Debye-Ang):
   XX=            -11.6607   YY=            -12.2205   ZZ=            -11.4823
   XY=              0.0000   XZ=              0.0000   YZ=              0.0000
 Traceless Quadrupole moment (field-independent basis, Debye-Ang):
   XX=              0.1271   YY=             -0.4326   ZZ=              0.3055
   XY=              0.0000   XZ=              0.0000   YZ=              0.0000
 Octapole moment (field-independent basis, Debye-Ang**2):
  XXX=             -0.0000  YYY=              1.1382  ZZZ=             -0.0000  XYY=             -0.0000
  XXY=             -0.0378  XXZ=             -0.0000  XZZ=             -0.0000  YZZ=              0.7517
  YYZ=             -0.0000  XYZ=             -0.0000
 Hexadecapole moment (field-independent basis, Debye-Ang**3):
 XXXX=            -18.9450 YYYY=            -45.5332 ZZZZ=             -9.9027 XXXY=              0.0000
 XXXZ=              0.0000 YYYX=              0.0000 YYYZ=              0.0000 ZZZX=              0.0000
 ZZZY=              0.0000 XXYY=            -10.5554 XXZZ=             -5.0524 YYZZ=             -9.1242
 XXYZ=              0.0000 YYXZ=              0.0000 ZZXY=              0.0000
 N-N= 3.151950841812D+01 E-N=-3.321021053106D+02  KE= 1.140640593615D+02
 Symmetry A'   KE= 1.103189023256D+02
 Symmetry A"   KE= 3.745157035890D+00
  Exact polarizability:      16.458      -0.000      20.790       0.000      -0.000       9.896
 Approx polarizability:      19.681      -0.000      31.071      -0.000      -0.000      12.843
 Rotating derivatives to standard orientation.
 Full mass-weighted force constant matrix:
 Low frequencies ---  -24.1488  -15.8045    0.0009    0.0012    0.0015   11.7222
 Low frequencies --- 1198.1646 1251.4892 1515.5068
 Diagonal vibrational polarizability:
        0.6661162       1.2795096       0.0201449
 Harmonic frequencies (cm**-1), IR intensities (KM/Mole), Raman scattering
 activities (A**4/AMU), depolarization ratios for plane and unpolarized
 incident light, reduced masses (AMU), force constants (mDyne/A),
 and normal coordinates:
                      1                      2                      3
                     A"                     A'                     A'
 Frequencies --   1198.1645              1251.4891              1515.5068
 Red. masses --      1.3758                 1.3542                 1.0853
 Frc consts  --      1.1637                 1.2497                 1.4687
 IR Inten    --      1.0746                14.2843                 6.0079
  Atom  AN      X      Y      Z        X      Y      Z        X      Y      Z
     1   6    -0.00   0.00  -0.18     0.15  -0.00  -0.00    -0.00  -0.01   0.00
     2   8     0.00  -0.00   0.04    -0.08  -0.00   0.00     0.00  -0.07  -0.00
     3   1     0.00   0.00   0.70    -0.26  -0.65   0.00     0.36   0.61  -0.00
     4   1     0.00  -0.00   0.70    -0.26   0.65   0.00    -0.36   0.61  -0.00
                      4                      5                      6
                     A'                     A'                     A'
 Frequencies --   1872.9522              2845.5437              2901.4584
 Red. masses --      8.3441                 1.0462                 1.1190
 Frc consts  --     17.2459                 4.9912                 5.5501
 IR Inten    --    129.6935                64.4410               131.5990
  Atom  AN      X      Y      Z        X      Y      Z        X      Y      Z
     1   6     0.00   0.62   0.00    -0.00   0.06   0.00    -0.10  -0.00   0.00
     2   8    -0.00  -0.45  -0.00     0.00   0.00  -0.00     0.00  -0.00  -0.00
     3   1    -0.43  -0.13  -0.00     0.61  -0.36  -0.00     0.60  -0.38  -0.00
     4   1     0.43  -0.13  -0.00    -0.61  -0.36  -0.00     0.60   0.38  -0.00

 -------------------
 - Thermochemistry -
 -------------------
 Temperature   298.150 Kelvin.  Pressure   1.00000 Atm.
 Atom     1 has atomic number  6 and mass  12.00000
 Atom     2 has atomic number  8 and mass  15.99491
 Atom     3 has atomic number  1 and mass   1.00783
 Atom     4 has atomic number  1 and mass   1.00783
 Molecular mass:    30.01056 amu.
 Principal axes and moments of inertia in atomic units:
                           1         2         3
     Eigenvalues --     6.33215  45.67164  52.00379
           X           -0.00000   1.00000   0.00000
           Y            1.00000   0.00000   0.00000
           Z           -0.00000   0.00000   1.00000
 This molecule is an asymmetric top.
 Rotational symmetry number  1.
 Rotational temperatures (Kelvin)     13.67843     1.89645     1.66553
 Rotational constants (GHZ):         285.01227    39.51558    34.70403
 Zero-point vibrational energy      69294.4 (Joules/Mol)
                                   16.56175 (Kcal/Mol)
 Vibrational temperatures:   1723.89  1800.61  2180.48  2694.76  4094.10
          (Kelvin)           4174.55
 
 Zero-point correction=                           0.026393 (Hartree/Particle)
 Thermal correction to Energy=                    0.029262
 Thermal correction to Enthalpy=                  0.030206
 Thermal correction to Gibbs Free Energy=         0.004749
 Sum of electronic and zero-point Energies=           -114.458440
 Sum of electronic and thermal Energies=              -114.455572
 Sum of electronic and thermal Enthalpies=            -114.454628
 Sum of electronic and thermal Free Energies=         -114.480084
 
                     E (Thermal)             CV                S
                      KCal/Mol        Cal/Mol-Kelvin    Cal/Mol-Kelvin
 Total                   18.362              6.432             53.579
 Electronic               0.000              0.000              0.000
 Translational            0.889              2.981             36.130
 Rotational               0.889              2.981             17.360
 Vibrational             16.584              0.471              0.089
                       Q            Log10(Q)             Ln(Q)
 Total Bot       0.654179D-02         -2.184304         -5.029545
 Total V=0       0.902706D+10          9.955546         22.923493
 Vib (Bot)       0.729238D-12        -12.137131        -27.946776
 Vib (V=0)       0.100628D+01          0.002719          0.006261
 Electronic      0.100000D+01          0.000000          0.000000
 Translational   0.646197D+07          6.810365         15.681445
 Rotational      0.138823D+04          3.142462          7.235786
 ***** Axes restored to original set *****
 -------------------------------------------------------------------
 Center     Atomic                   Forces (Hartrees/Bohr)
 Number     Number              X              Y              Z
 -------------------------------------------------------------------
      1        6           0.000066086   -0.000182274   -0.000044254
      2        8           0.000039059   -0.000107316   -0.000025909
      3        1           0.000031940    0.000154403    0.000122807
      4        1          -0.000137085    0.000135187   -0.000052644
 -------------------------------------------------------------------
 Cartesian Forces:  Max     0.000182274 RMS     0.000105295

 ----------------------------------------------------------------------

 Electric dipole moment (input orientation):
 (Debye = 10**-18 statcoulomb cm , SI units = C m)
                  (au)            (Debye)         (10**-30 SI)
   Tot        0.873118D+00      0.221925D+01      0.740261D+01
   x          0.291041D+00      0.739752D+00      0.246755D+01
   y         -0.800151D+00     -0.203378D+01     -0.678397D+01
   z         -0.193360D+00     -0.491473D+00     -0.163938D+01

 Dipole polarizability, Alpha (input orientation).
 (esu units = cm**3 , SI units = C**2 m**2 J**-1)
 Alpha(0;0):
               (au)            (10**-24 esu)      (10**-40 SI)
   iso        0.157149D+02      0.232870D+01      0.259103D+01
   aniso      0.950052D+01      0.140783D+01      0.156642D+01
   xx         0.142472D+02      0.211121D+01      0.234904D+01
   yx        -0.297315D+01     -0.440576D+00     -0.490206D+00
   yy         0.190857D+02      0.282821D+01      0.314681D+01
   zx         0.245457D+01      0.363729D+00      0.404704D+00
   zy         0.257926D+01      0.382207D+00      0.425263D+00
   zz         0.138117D+02      0.204668D+01      0.227724D+01

 ----------------------------------------------------------------------

 Dipole orientation:
     6          0.52818748         -0.82193140         -2.62768228
     8          0.52818805         -0.82193110         -4.87702692
     1         -1.04521286         -1.63796392         -1.49607033
     1          2.10158598         -0.00589983         -1.49606898

 Electric dipole moment (dipole orientation):
 (Debye = 10**-18 statcoulomb cm , SI units = C m)
                  (au)            (Debye)         (10**-30 SI)
   Tot        0.873118D+00      0.221925D+01      0.740261D+01
   x          0.000000D+00      0.000000D+00      0.000000D+00
   y          0.000000D+00      0.000000D+00      0.000000D+00
   z          0.873118D+00      0.221925D+01      0.740261D+01

 Dipole polarizability, Alpha (dipole orientation).
 (esu units = cm**3 , SI units = C**2 m**2 J**-1)
 Alpha(0;0):
               (au)            (10**-24 esu)      (10**-40 SI)
   iso        0.157149D+02      0.232870D+01      0.259103D+01
   aniso      0.950052D+01      0.140783D+01      0.156642D+01
   xx         0.150671D+02      0.223272D+01      0.248424D+01
   yx         0.268198D+01      0.397428D+00      0.442198D+00
   yy         0.112870D+02      0.167256D+01      0.186097D+01
   zx         0.000000D+00      0.000000D+00      0.000000D+00
   zy         0.000000D+00      0.000000D+00      0.000000D+00
   zz         0.207904D+02      0.308082D+01      0.342788D+01

 ----------------------------------------------------------------------
 Unable to Open any file for archive entry.
 1\1\GINC-GADI-CPU-CLX-1411\Freq\RM06\def2TZVP\C1H2O1\PK8622\23-Jun-202
 0\0\\# M06/Def2TZVP Freq=(anharmonic,ReadAnharm) Opt=CalcAll\\Anharmon
 ic frequencies for methanal using VPT2\\0,1\C,-0.1006494402,1.48009540
 46,0.0025117647\O,-0.4974186984,2.5709234174,0.2661157641\H,-0.5499119
 733,0.8580006442,-0.8033787584\H,0.7478302782,1.0046306358,0.543171058
 1\\Version=ES64L-G16RevC.01\State=1-A'\HF=-114.4848333\RMSD=3.243e-09\
 RMSF=1.053e-04\ZeroPoint=0.0263928\Thermal=0.0292615\ETot=-114.4555718
 \HTot=-114.4546276\GTot=-114.4800845\Dipole=0.291041,-0.8001515,-0.193
 3604\DipoleDeriv=0.6028183,-0.2468884,0.24626,-0.2468882,0.9744634,0.2
 222577,0.2462601,0.2222575,0.5689087,-0.4520167,0.1989628,-0.0056682,0
 .1989625,-0.8884698,-0.1424172,-0.0056683,-0.1424169,-0.4144468,-0.024
 7623,-0.0537973,-0.1173934,-0.0317751,-0.0587271,-0.1033632,-0.1042984
 ,-0.1247341,-0.1121394,-0.1260393,0.1017229,-0.1231984,0.0797007,-0.02
 72665,0.0235228,-0.1362934,0.0448936,-0.0423224\Polar=14.2471728,-2.97
 31513,19.0857152,2.4545678,2.5792638,13.8116644\PG=CS [SG(C1H2O1)]\NIm
 ag=0\\0.45399378,-0.24332391,0.90321661,0.12594157,0.19682239,0.414369
 43,-0.16845845,0.23958543,0.03579160,0.14680066,0.23958546,-0.72429681
 ,-0.16338244,-0.27711097,0.78964797,0.03579162,-0.16338246,-0.12095333
 ,-0.04132666,0.18898607,0.09185875,-0.10781356,-0.04252031,-0.07334156
 ,0.02354769,0.00758997,0.00846647,0.08403961,-0.04589006,-0.10031777,-
 0.06952306,-0.00359485,-0.03662651,-0.03684749,0.04106009,0.12651202,-
 0.07534532,-0.06625298,-0.17080390,0.00181565,-0.02599349,0.00577941,0
 .08714575,0.10353910,0.16553312,-0.17772178,0.04625878,-0.08839161,-0.
 00188990,0.02993554,-0.00293143,0.00022626,0.00842481,-0.01361609,0.17
 938541,0.04962850,-0.07860202,0.03608311,0.04112038,-0.02872464,0.0112
 4389,-0.00612976,0.01043227,-0.01129263,-0.08461912,0.09689439,-0.0863
 8788,0.03281306,-0.12261219,0.00371940,0.00038986,0.02331516,-0.022270
 66,0.00283146,-0.00050863,0.10493913,-0.03603438,0.09980566\\-0.000066
 09,0.00018227,0.00004425,-0.00003906,0.00010732,0.00002591,-0.00003194
 ,-0.00015440,-0.00012281,0.00013709,-0.00013519,0.00005264\\\@
 The archive entry for this job was punched.


 THE ENLIGHTENED ONE, BECAUSE HE SAW MANKIND DROWNING  
 IN THE GREAT SEA OF BIRTH, DEATH, AND SORROW, LONGED TO SAVE 
 THEM, FOR THIS HE WAS MOVED TO PITY.                         
 BECAUSE HE SAW MEN OF THE WORLD STRAYING IN FALSE PATHS, AND 
 NONE TO GUIDE THEM, FOR THIS HE WAS MOVED TO PITY.           
                     ..................                       
 BECAUSE HE SAW THE MEN OF THE WORLD PLOUGHING THEIR FIELDS,  
 SOWING THE SEED, TRAFFICKING, HUCKSTERING, BUYING, SELLING,  
 AND AT THE END WINNOWING NOTHING BUT BITTERNESS,             
 FOR THIS HE WAS MOVED TO PITY......                   
                   BUDAH'S PITY - UPSAKA SILA SUTRA           
 Job cpu time:       0 days  0 hours  2 minutes 15.4 seconds.
 Elapsed time:       0 days  0 hours  0 minutes 34.3 seconds.
 File lengths (MBytes):  RWF=      6 Int=      0 D2E=      0 Chk=     76 Scr=      1
 Normal termination of Gaussian 16 at Tue Jun 23 15:19:00 2020.
 Link1:  Proceeding to internal job step number  2.
 ------------------------------------------------------------------
 #N Geom=AllCheck Guess=TCheck SCRF=Check GenChk RM06/def2TZVP Freq
 ------------------------------------------------------------------
 1/10=4,29=7,30=1,38=21,40=1,80=1/1,6,3;
 2/12=2,40=1/2;
 3/5=44,7=101,11=2,14=-4,25=1,30=1,70=2,71=2,74=-54,116=1,140=1/1,2,3;
 4/5=101,69=2/1;
 5/5=2,38=6,98=1/2;
 8/6=4,10=90,11=11/1;
 11/6=1,8=1,9=11,15=111,16=1/1,2,10;
 10/6=1,60=-2/2;
 6/7=2,8=2,9=2,10=2,28=1/1;
 7/10=1,25=1,71=2,72=1/1,2,3,16;
 1/38=20,80=1/6(3);
 7/8=1,25=202,44=-1,71=1,72=1,92=10/16,17;
 1/10=4,30=1,38=20,80=1/3;
 99//99;
 3/5=44,7=101,11=2,14=-2,25=1,30=1,70=5,71=2,74=-54,116=1,140=1/1,2,3;
 4/5=5,16=3,69=2/1;
 5/5=2,38=5,98=1/2;
 8/6=4,10=90,11=11/1;
 11/6=1,8=1,9=11,15=111,16=1/1,2,10;
 10/6=1,60=-2/2;
 6/7=2,8=2,9=2,10=2,28=1/1;
 7/7=1,10=1,25=1,71=1,72=1/1,2,3,16;
 1/38=20,80=1/6(-8);
 7/8=1,25=202,44=-1,71=1,72=1,92=10/16,17;
 1/10=4,30=1,38=20,80=1/3;
 99//99;
 Structure from the checkpoint file:  "checkpoint.chk"
 ----------------------------------------------
 Anharmonic frequencies for methanal using VPT2
 ----------------------------------------------
 Charge =  0 Multiplicity = 1
 Redundant internal coordinates found in file.  (old form).
 C,0,-0.1006494402,1.4800954046,0.0025117647
 O,0,-0.4974186984,2.5709234174,0.2661157641
 H,0,-0.5499119733,0.8580006442,-0.8033787584
 H,0,0.7478302782,1.0046306358,0.5431710581
 Recover connectivity data from disk.
 Numerical evaluation of third derivatives.
 Nuclear step= 0.010000 Angstroms, electric field step= 0.000333 atomic units, NStep=1.

 GradGradGradGradGradGradGradGradGradGradGradGradGradGradGradGradGradGrad
 Berny optimization.
 Initialization pass.
                           ----------------------------
                           !    Initial Parameters    !
                           ! (Angstroms and Degrees)  !
 --------------------------                            --------------------------
 ! Name  Definition              Value          Derivative Info.                !
 --------------------------------------------------------------------------------
 ! R1    R(1,2)                  1.1903         calculate D2E/DX2 analytically  !
 ! R2    R(1,3)                  1.1128         calculate D2E/DX2 analytically  !
 ! R3    R(1,4)                  1.1128         calculate D2E/DX2 analytically  !
 ! A1    A(2,1,3)              122.5563         calculate D2E/DX2 analytically  !
 ! A2    A(2,1,4)              122.5564         calculate D2E/DX2 analytically  !
 ! A3    A(3,1,4)              114.8873         calculate D2E/DX2 analytically  !
 ! D1    D(2,1,4,3)            180.0            calculate D2E/DX2 analytically  !
 --------------------------------------------------------------------------------
 Trust Radius=3.00D-01 FncErr=1.00D-07 GrdErr=1.00D-07 EigMax=2.50D+02 EigMin=1.00D-04
 Number of steps in this run=      2 maximum allowed number of steps=      2.
 GradGradGradGradGradGradGradGradGradGradGradGradGradGradGradGradGradGrad

                          Input orientation:                          
 ---------------------------------------------------------------------
 Center     Atomic      Atomic             Coordinates (Angstroms)
 Number     Number       Type             X           Y           Z
 ---------------------------------------------------------------------
      1          6           0       -0.100649    1.480095    0.002512
      2          8           0       -0.497419    2.570923    0.266116
      3          1           0       -0.549912    0.858001   -0.803379
      4          1           0        0.747830    1.004631    0.543171
 ---------------------------------------------------------------------
                    Distance matrix (angstroms):
                    1          2          3          4
     1  C    0.000000
     2  O    1.190302   0.000000
     3  H    1.112789   2.020069   0.000000
     4  H    1.112788   2.020069   1.875855   0.000000
 Stoichiometry    CH2O
 Framework group  CS[SG(CH2O)]
 Deg. of freedom     5
 Full point group                 CS      NOp   2
 Largest Abelian subgroup         CS      NOp   2
 Largest concise Abelian subgroup C1      NOp   1
                         Standard orientation:                         
 ---------------------------------------------------------------------
 Center     Atomic      Atomic             Coordinates (Angstroms)
 Number     Number       Type             X           Y           Z
 ---------------------------------------------------------------------
      1          6           0       -0.000000   -0.520298   -0.000000
      2          8           0       -0.000000    0.670004    0.000000
      3          1           0        0.937928   -1.119122   -0.000000
      4          1           0       -0.937927   -1.119122    0.000000
 ---------------------------------------------------------------------
 Rotational constants (GHZ):         285.0122684          39.5155756          34.7040294
 Standard basis: def2TZVP (5D, 7F)
 There are    60 symmetry adapted cartesian basis functions of A'  symmetry.
 There are    24 symmetry adapted cartesian basis functions of A"  symmetry.
 There are    52 symmetry adapted basis functions of A'  symmetry.
 There are    22 symmetry adapted basis functions of A"  symmetry.
    74 basis functions,   118 primitive gaussians,    84 cartesian basis functions
     8 alpha electrons        8 beta electrons
       nuclear repulsion energy        31.5195084181 Hartrees.
 NAtoms=    4 NActive=    4 NUniq=    4 SFac= 1.00D+00 NAtFMM=   60 NAOKFM=F Big=F
 Integral buffers will be    131072 words long.
 Raffenetti 2 integral format.
 Two-electron integral symmetry is turned on.
 One-electron integrals computed using PRISM.
   2 Symmetry operations used in ECPInt.
 ECPInt:  NShTT=     465 NPrTT=    1428 LenC2=     466 LenP2D=    1322.
 LDataN:  DoStor=T MaxTD1= 6 Len=  172
 NBasis=    74 RedAO= T EigKep=  1.39D-03  NBF=    52    22
 NBsUse=    74 1.00D-06 EigRej= -1.00D+00 NBFU=    52    22
 Initial guess from the checkpoint file:  "checkpoint.chk"
 B after Tr=    -0.000000   -0.000000    0.000000
         Rot=    1.000000    0.000000   -0.000000    0.000000 Ang=   0.00 deg.
 Initial guess orbital symmetries:
       Occupied  (A') (A') (A') (A') (A') (A') (A") (A')
       Virtual   (A") (A') (A') (A') (A') (A") (A') (A') (A') (A')
                 (A') (A") (A") (A') (A') (A") (A') (A') (A') (A')
                 (A") (A') (A') (A") (A') (A') (A") (A") (A') (A")
                 (A') (A') (A') (A') (A') (A') (A") (A") (A") (A')
                 (A') (A") (A') (A') (A") (A') (A") (A') (A') (A')
                 (A') (A') (A") (A') (A") (A') (A") (A') (A') (A")
                 (A') (A") (A') (A') (A') (A')
 Keep R1 ints in memory in symmetry-blocked form, NReq=7501692.
 Requested convergence on RMS density matrix=1.00D-08 within 128 cycles.
 Requested convergence on MAX density matrix=1.00D-06.
 Requested convergence on             energy=1.00D-06.
 No special actions if energy rises.
 SCF Done:  E(RM06) =  -114.484833305     A.U. after    1 cycles
            NFock=  1  Conv=0.28D-09     -V/T= 2.0037
 DoSCS=F DFT=T ScalE2(SS,OS)=  1.000000  1.000000
 Range of M.O.s used for correlation:     1    74
 NBasis=    74 NAE=     8 NBE=     8 NFC=     0 NFV=     0
 NROrb=     74 NOA=     8 NOB=     8 NVA=    66 NVB=    66
   2 Symmetry operations used in ECPInt.
 ECPInt:  NShTT=     465 NPrTT=    1428 LenC2=     466 LenP2D=    1322.
 LDataN:  DoStor=T MaxTD1= 7 Len=  274
 Symmetrizing basis deriv contribution to polar:
 IMax=3 JMax=2 DiffMx= 0.00D+00
 G2DrvN: will do     5 centers at a time, making    1 passes.
 Calling FoFCou, ICntrl=  3107 FMM=F I1Cent=   0 AccDes= 0.00D+00.
 End of G2Drv F.D. properties file   721 does not exist.
 End of G2Drv F.D. properties file   722 does not exist.
 End of G2Drv F.D. properties file   788 does not exist.
          IDoAtm=1111
          Differentiating once with respect to electric field.
                with respect to dipole field.
          Differentiating once with respect to nuclear coordinates.
 Keep R1 ints in memory in symmetry-blocked form, NReq=7496283.
          There are    15 degrees of freedom in the 1st order CPHF.  IDoFFX=6 NUNeed=     3.
     12 vectors produced by pass  0 Test12= 3.52D-15 6.67D-09 XBig12= 1.61D+01 2.82D+00.
 AX will form    12 AO Fock derivatives at one time.
     12 vectors produced by pass  1 Test12= 3.52D-15 6.67D-09 XBig12= 4.98D+00 8.39D-01.
     12 vectors produced by pass  2 Test12= 3.52D-15 6.67D-09 XBig12= 6.31D-02 8.12D-02.
     12 vectors produced by pass  3 Test12= 3.52D-15 6.67D-09 XBig12= 5.82D-04 6.46D-03.
     12 vectors produced by pass  4 Test12= 3.52D-15 6.67D-09 XBig12= 7.95D-06 8.90D-04.
     12 vectors produced by pass  5 Test12= 3.52D-15 6.67D-09 XBig12= 5.27D-08 1.06D-04.
      6 vectors produced by pass  6 Test12= 3.52D-15 6.67D-09 XBig12= 1.24D-10 3.86D-06.
      1 vectors produced by pass  7 Test12= 3.52D-15 6.67D-09 XBig12= 2.76D-13 1.55D-07.
 InvSVY:  IOpt=1 It=  1 EMax= 4.44D-16
 Solved reduced A of dimension    79 with    12 vectors.
 Isotropic polarizability for W=    0.000000       15.69 Bohr**3.
 End of Minotr F.D. properties file   721 does not exist.
 End of Minotr F.D. properties file   722 does not exist.
 End of Minotr F.D. properties file   788 does not exist.

 **********************************************************************

            Population analysis using the SCF Density.

 **********************************************************************

 Orbital symmetries:
       Occupied  (A') (A') (A') (A') (A') (A') (A") (A')
       Virtual   (A") (A') (A') (A') (A') (A") (A') (A') (A') (A')
                 (A') (A") (A") (A') (A') (A") (A') (A') (A') (A')
                 (A") (A') (A') (A") (A') (A') (A") (A") (A') (A")
                 (A') (A') (A') (A') (A') (A') (A") (A") (A") (A')
                 (A') (A") (A') (A') (A") (A') (A") (A') (A') (A')
                 (A') (A') (A") (A') (A") (A') (A") (A') (A') (A")
                 (A') (A") (A') (A') (A') (A')
 The electronic state is 1-A'.
 Alpha  occ. eigenvalues --  -19.23000 -10.33953  -1.09348  -0.64753  -0.51374
 Alpha  occ. eigenvalues --   -0.47371  -0.42830  -0.28860
 Alpha virt. eigenvalues --   -0.04399   0.05341   0.10941   0.11183   0.21066
 Alpha virt. eigenvalues --    0.21113   0.25668   0.37793   0.40355   0.40549
 Alpha virt. eigenvalues --    0.48596   0.50934   0.57589   0.59162   0.68221
 Alpha virt. eigenvalues --    0.78668   0.79305   0.93054   1.06131   1.29162
 Alpha virt. eigenvalues --    1.33798   1.43952   1.44003   1.44342   1.57483
 Alpha virt. eigenvalues --    1.63325   1.73392   1.90077   1.93983   1.94104
 Alpha virt. eigenvalues --    1.99256   2.16476   2.26973   2.39020   2.47535
 Alpha virt. eigenvalues --    2.52765   2.62465   2.84189   2.92908   2.93477
 Alpha virt. eigenvalues --    2.96070   3.01144   3.01577   3.11273   3.12923
 Alpha virt. eigenvalues --    3.20053   3.55195   3.64646   3.65178   3.77775
 Alpha virt. eigenvalues --    3.93790   4.28854   5.17223   5.18161   5.50364
 Alpha virt. eigenvalues --    5.62947   6.06017   6.23650   6.30113   6.34346
 Alpha virt. eigenvalues --    6.41799   6.76865   6.81474   7.02951  22.34395
 Alpha virt. eigenvalues --   43.49454
          Condensed to atoms (all electrons):
               1          2          3          4
     1  C    4.568876   0.508450   0.366328   0.366327
     2  O    0.508450   7.923262  -0.065998  -0.065998
     3  H    0.366328  -0.065998   0.764130  -0.119308
     4  H    0.366327  -0.065998  -0.119308   0.764130
 Mulliken charges:
               1
     1  C    0.190019
     2  O   -0.299715
     3  H    0.054848
     4  H    0.054848
 Sum of Mulliken charges =  -0.00000
 Mulliken charges with hydrogens summed into heavy atoms:
               1
     1  C    0.299715
     2  O   -0.299715
 APT charges:
               1
     1  C    0.716847
     2  O   -0.585377
     3  H   -0.065735
     4  H   -0.065735
 Sum of APT charges =   0.00000
 APT charges with hydrogens summed into heavy atoms:
               1
     1  C    0.585377
     2  O   -0.585377
 Electronic spatial extent (au):  <R**2>=             60.1448
 Charge=             -0.0000 electrons
 Dipole moment (field-independent basis, Debye):
    X=             -0.0000    Y=             -2.2192    Z=             -0.0000  Tot=              2.2192
 Quadrupole moment (field-independent basis, Debye-Ang):
   XX=            -11.6607   YY=            -12.2205   ZZ=            -11.4823
   XY=              0.0000   XZ=              0.0000   YZ=             -0.0000
 Traceless Quadrupole moment (field-independent basis, Debye-Ang):
   XX=              0.1271   YY=             -0.4326   ZZ=              0.3055
   XY=              0.0000   XZ=              0.0000   YZ=             -0.0000
 Octapole moment (field-independent basis, Debye-Ang**2):
  XXX=             -0.0000  YYY=              1.1382  ZZZ=             -0.0000  XYY=             -0.0000
  XXY=             -0.0378  XXZ=             -0.0000  XZZ=             -0.0000  YZZ=              0.7517
  YYZ=             -0.0000  XYZ=              0.0000
 Hexadecapole moment (field-independent basis, Debye-Ang**3):
 XXXX=            -18.9450 YYYY=            -45.5332 ZZZZ=             -9.9027 XXXY=              0.0000
 XXXZ=              0.0000 YYYX=              0.0000 YYYZ=             -0.0000 ZZZX=              0.0000
 ZZZY=             -0.0000 XXYY=            -10.5554 XXZZ=             -5.0524 YYZZ=             -9.1242
 XXYZ=             -0.0000 YYXZ=              0.0000 ZZXY=              0.0000
 N-N= 3.151950841812D+01 E-N=-3.321021051126D+02  KE= 1.140640592836D+02
 Symmetry A'   KE= 1.103189022911D+02
 Symmetry A"   KE= 3.745156992560D+00
  Exact polarizability:      16.377      -0.000      20.793      -0.000       0.000       9.898
 Approx polarizability:      19.681      -0.000      31.071      -0.000       0.000      12.843
   2 Symmetry operations used in ECPInt.
 ECPInt:  NShTT=     465 NPrTT=    1428 LenC2=     466 LenP2D=    1322.
 LDataN:  DoStor=T MaxTD1= 8 Len=  415
 Calling FoFJK, ICntrl=    100127 FMM=F ISym2X=1 I1Cent= 0 IOpClX= 0 NMat=1 NMatS=1 NMatT=0.
 Full mass-weighted force constant matrix:
 Low frequencies ---   -0.0017   -0.0014   -0.0013   16.3384   23.5177   36.0004
 Low frequencies --- 1198.1756 1251.2448 1515.4761
 Diagonal vibrational polarizability:
        0.6690221       1.2824650       0.0202726
 Harmonic frequencies (cm**-1), IR intensities (KM/Mole), Raman scattering
 activities (A**4/AMU), depolarization ratios for plane and unpolarized
 incident light, reduced masses (AMU), force constants (mDyne/A),
 and normal coordinates:
                      1                      2                      3
                     A"                     A'                     A'
 Frequencies --   1198.1755              1251.2447              1515.4761
 Red. masses --      1.3758                 1.3544                 1.0854
 Frc consts  --      1.1637                 1.2494                 1.4687
 IR Inten    --      1.0815                14.0929                 6.0902
  Atom  AN      X      Y      Z        X      Y      Z        X      Y      Z
     1   6     0.00  -0.00  -0.18     0.15  -0.00   0.00    -0.00  -0.01   0.00
     2   8    -0.00  -0.00   0.04    -0.08  -0.00  -0.00     0.00  -0.07  -0.00
     3   1    -0.00  -0.00   0.70    -0.26  -0.65  -0.00     0.36   0.61  -0.00
     4   1    -0.00   0.00   0.70    -0.26   0.65  -0.00    -0.36   0.61  -0.00
                      4                      5                      6
                     A'                     A'                     A'
 Frequencies --   1872.9979              2845.1638              2901.1030
 Red. masses --      8.3441                 1.0462                 1.1188
 Frc consts  --     17.2467                 4.9896                 5.5481
 IR Inten    --    129.3207                65.8966               133.4742
  Atom  AN      X      Y      Z        X      Y      Z        X      Y      Z
     1   6     0.00   0.62  -0.00    -0.00   0.06  -0.00    -0.10  -0.00  -0.00
     2   8    -0.00  -0.45   0.00     0.00   0.00   0.00     0.00  -0.00   0.00
     3   1    -0.43  -0.13   0.00     0.61  -0.36   0.00     0.59  -0.38   0.00
     4   1     0.43  -0.13   0.00    -0.61  -0.36   0.00     0.59   0.38   0.00

 -------------------
 - Thermochemistry -
 -------------------
 Temperature   298.150 Kelvin.  Pressure   1.00000 Atm.
 Atom     1 has atomic number  6 and mass  12.00000
 Atom     2 has atomic number  8 and mass  15.99491
 Atom     3 has atomic number  1 and mass   1.00783
 Atom     4 has atomic number  1 and mass   1.00783
 Molecular mass:    30.01056 amu.
 Principal axes and moments of inertia in atomic units:
                           1         2         3
     Eigenvalues --     6.33215  45.67164  52.00379
           X           -0.00000   1.00000   0.00000
           Y            1.00000   0.00000  -0.00000
           Z            0.00000  -0.00000   1.00000
 This molecule is an asymmetric top.
 Rotational symmetry number  1.
 Rotational temperatures (Kelvin)     13.67843     1.89645     1.66553
 Rotational constants (GHZ):         285.01227    39.51558    34.70403
 Zero-point vibrational energy      69288.7 (Joules/Mol)
                                   16.56039 (Kcal/Mol)
 Vibrational temperatures:   1723.91  1800.26  2180.43  2694.83  4093.56
          (Kelvin)           4174.04
 
 Zero-point correction=                           0.026391 (Hartree/Particle)
 Thermal correction to Energy=                    0.029259
 Thermal correction to Enthalpy=                  0.030204
 Thermal correction to Gibbs Free Energy=         0.004747
[...]
 Berny optimization.
 Internal  Forces:  Max     0.000188148 RMS     0.000118203
 Search for a local minimum.
 Step number   1 out of a maximum of    2
 All quantities printed in internal units (Hartrees-Bohrs-Radians)
 Second derivative matrix not updated -- analytic derivatives used.
 The second derivative matrix:
                          R1        R2        R3        A1        A2
           R1           0.93611
           R2           0.03909   0.29333
           R3           0.03909   0.00556   0.29333
           A1           0.01795   0.00299  -0.01082   0.11275
           A2           0.01795  -0.01082   0.00299  -0.07104   0.11275
           A3          -0.03589   0.00783   0.00783  -0.04171  -0.04171
           D1          -0.00000   0.00000  -0.00000  -0.00000   0.00000
                          A3        D1
           A3           0.08342
           D1          -0.00000   0.07043
 ITU=  0
     Eigenvalues ---    0.07043   0.12118   0.18199   0.28957   0.29586
     Eigenvalues ---    0.94309
 Angle between quadratic step and forces=  31.47 degrees.
 Linear search not attempted -- first point.
 Iteration  1 RMS(Cart)=  0.00041913 RMS(Int)=  0.00000015
 Iteration  2 RMS(Cart)=  0.00000017 RMS(Int)=  0.00000000
 ClnCor:  largest displacement from symmetrization is 2.40D-12 for atom     1.
 Variable       Old X    -DE/DX   Delta X   Delta X   Delta X     New X
                                 (Linear)    (Quad)   (Total)
    R1        2.24934  -0.00012   0.00000  -0.00002  -0.00002   2.24932
    R2        2.10287  -0.00019   0.00000  -0.00066  -0.00066   2.10221
    R3        2.10286  -0.00019   0.00000  -0.00066  -0.00066   2.10221
    A1        2.13901  -0.00005   0.00000  -0.00042  -0.00042   2.13860
    A2        2.13901  -0.00005   0.00000  -0.00042  -0.00042   2.13860
    A3        2.00516   0.00009   0.00000   0.00083   0.00083   2.00599
    D1        3.14159  -0.00000   0.00000  -0.00000   0.00000   3.14159
         Item               Value     Threshold  Converged?
 Maximum Force            0.000188     0.000450     YES
 RMS     Force            0.000118     0.000300     YES
 Maximum Displacement     0.000515     0.001800     YES
 RMS     Displacement     0.000419     0.001200     YES
 Predicted change in Energy=-1.840683D-07
 Optimization completed.
    -- Stationary point found.
                           ----------------------------
                           !   Optimized Parameters   !
                           ! (Angstroms and Degrees)  !
 --------------------------                            --------------------------
 ! Name  Definition              Value          Derivative Info.                !
 --------------------------------------------------------------------------------
 ! R1    R(1,2)                  1.1903         -DE/DX =   -0.0001              !
 ! R2    R(1,3)                  1.1128         -DE/DX =   -0.0002              !
 ! R3    R(1,4)                  1.1128         -DE/DX =   -0.0002              !
 ! A1    A(2,1,3)              122.5563         -DE/DX =    0.0                 !
 ! A2    A(2,1,4)              122.5564         -DE/DX =    0.0                 !
 ! A3    A(3,1,4)              114.8873         -DE/DX =    0.0001              !
 ! D1    D(2,1,4,3)            180.0            -DE/DX =    0.0                 !
 --------------------------------------------------------------------------------
 GradGradGradGradGradGradGradGradGradGradGradGradGradGradGradGradGradGrad


 ----------------------------------------------------------------------

 Electric dipole moment (input orientation):
 (Debye = 10**-18 statcoulomb cm , SI units = C m)
                  (au)            (Debye)         (10**-30 SI)
   Tot        0.873118D+00      0.221925D+01      0.740260D+01
   x          0.291041D+00      0.739752D+00      0.246755D+01
   y         -0.800151D+00     -0.203378D+01     -0.678397D+01
   z         -0.193360D+00     -0.491473D+00     -0.163938D+01

 Dipole polarizability, Alpha (input orientation).
 (esu units = cm**3 , SI units = C**2 m**2 J**-1)
 Alpha(0;0):
               (au)            (10**-24 esu)      (10**-40 SI)
   iso        0.156895D+02      0.232495D+01      0.258685D+01
   aniso      0.949166D+01      0.140652D+01      0.156496D+01
   xx         0.142097D+02      0.210565D+01      0.234286D+01
   yx        -0.297784D+01     -0.441270D+00     -0.490979D+00
   yy         0.190879D+02      0.282853D+01      0.314717D+01
   zx         0.241332D+01      0.357617D+00      0.397903D+00
   zy         0.257474D+01      0.381537D+00      0.424517D+00
   zz         0.137711D+02      0.204066D+01      0.227054D+01

 ----------------------------------------------------------------------

 Dipole orientation:
     6          0.52818748         -0.82193140         -2.62768228
     8          0.52818805         -0.82193110         -4.87702692
     1         -1.04521286         -1.63796392         -1.49607033
     1          2.10158598         -0.00589983         -1.49606898

 Electric dipole moment (dipole orientation):
 (Debye = 10**-18 statcoulomb cm , SI units = C m)
                  (au)            (Debye)         (10**-30 SI)
   Tot        0.873118D+00      0.221925D+01      0.740260D+01
   x          0.000000D+00      0.000000D+00      0.000000D+00
   y          0.000000D+00      0.000000D+00      0.000000D+00
   z          0.873118D+00      0.221925D+01      0.740260D+01

 Dipole polarizability, Alpha (dipole orientation).
 (esu units = cm**3 , SI units = C**2 m**2 J**-1)
 Alpha(0;0):
               (au)            (10**-24 esu)      (10**-40 SI)
   iso        0.156895D+02      0.232495D+01      0.258685D+01
   aniso      0.949166D+01      0.140652D+01      0.156496D+01
   xx         0.150039D+02      0.222335D+01      0.247381D+01
   yx         0.264807D+01      0.392404D+00      0.436608D+00
   yy         0.112715D+02      0.167027D+01      0.185842D+01
   zx         0.000000D+00      0.000000D+00      0.000000D+00
   zy         0.000000D+00      0.000000D+00      0.000000D+00
   zz         0.207932D+02      0.308124D+01      0.342834D+01

 ----------------------------------------------------------------------
 Unable to Open any file for archive entry.
 1\1\GINC-GADI-CPU-CLX-1411\Freq\RM06\def2TZVP\C1H2O1\PK8622\23-Jun-202
 0\0\\#N Geom=AllCheck Guess=TCheck SCRF=Check GenChk RM06/def2TZVP Fre
 q\\Anharmonic frequencies for methanal using VPT2\\0,1\C,-0.1006494402
 ,1.4800954046,0.0025117647\O,-0.4974186984,2.5709234174,0.2661157641\H
 ,-0.5499119733,0.8580006442,-0.8033787584\H,0.7478302782,1.0046306358,
 0.5431710581\\Version=ES64L-G16RevC.01\State=1-A'\HF=-114.4848333\RMSD
 =2.819e-10\RMSF=1.053e-04\ZeroPoint=0.0263907\Thermal=0.0292594\ETot=-
 114.4555739\HTot=-114.4546297\GTot=-114.4800867\Dipole=0.291041,-0.800
 1514,-0.1933604\DipoleDeriv=0.6046927,-0.2468624,0.2481162,-0.2468621,
 0.9749616,0.2225925,0.2481163,0.2225923,0.5708867,-0.4529251,0.1985282
 ,-0.006653,0.1985279,-0.8877163,-0.1422959,-0.0066532,-0.1422956,-0.41
 54902,-0.0243688,-0.0548257,-0.1177115,-0.0326488,-0.0596252,-0.104799
 4,-0.1045245,-0.1263203,-0.113211,-0.1273989,0.1031599,-0.1237517,0.08
 09831,-0.02762,0.0245028,-0.1369387,0.0460237,-0.0421855\Polar=14.2096
 573,-2.9778363,19.0878728,2.4133206,2.5747408,13.7710657\Quadrupole=0.
 1026829,-0.2345622,0.1318793,0.1604726,-0.0253716,-0.1188258\PG=CS [SG
 (C1H2O1)]\NImag=0\\0.45379426,-0.24330824,0.90312464,0.12574134,0.1967
 7314,0.41416225,-0.16844458,0.23956803,0.03581595,0.14687795,0.2395680
 6,-0.72426172,-0.16336544,-0.27709411,0.78964987,0.03581596,-0.1633654
 7,-0.12094148,-0.04127306,0.18898429,0.09194210,-0.10773826,-0.0424591
 9,-0.07323480,0.02351689,0.00754708,0.00841618,0.08402236,-0.04590323,
 -0.10028389,-0.06951733,-0.00359038,-0.03664961,-0.03685377,0.04105533
 ,0.12653354,-0.07528273,-0.06617515,-0.17069416,0.00179352,-0.02604572
 ,0.00572162,0.08709018,0.10352522,0.16550804,-0.17761142,0.04619940,-0
 .08832248,-0.00195026,0.02997897,-0.00295908,0.00019901,0.00843828,-0.
 01360098,0.17936268,0.04964341,-0.07857903,0.03610963,0.04111646,-0.02
 873855,0.01123494,-0.00614322,0.01039996,-0.01130435,-0.08461665,0.096
 91762,-0.08627457,0.03276748,-0.12252661,0.00366360,0.00042686,0.02327
 775,-0.02227156,0.00284588,-0.00053550,0.10488254,-0.03604023,0.099784
 36\\-0.00006608,0.00018226,0.00004425,-0.00003906,0.00010733,0.0000259
 1,-0.00003194,-0.00015440,-0.00012281,0.00013708,-0.00013519,0.0000526
 4\\-0.01939207,0.02071530,0.03266775,0.01643307,-0.02352196,-0.0132756
 8,-0.01520483,0.02243905,0.01221026,0.01381379,0.01004645,0.02561446,-
 0.01247154,-0.01475676,-0.02327108,0.01355973,-0.02441495,-0.01040963,
 -0.01170619,0.01675593,0.00945728,-0.03491425,-0.03759915,-0.02660927,
 -0.00034774,0.00142455,0.00135388,0.03483317,-0.03725163,-0.03275589,0
 .00003627,-0.00366768,-0.00124392,0.00438949,0.03900505,0.03472222,-0.
 00308105,0.01481135,0.06767015,-0.00254013,-0.00324401,0.00159166,0.01
 580167,-0.00851670,-0.06955539,0.06951116,-0.00555520,-0.00203405,0.00
 173878,0.00328576,-0.00320743,0.00042882,0.00191426,-0.01018050,-0.071
 67875,0.00648988,-0.02552631,0.03595723,-0.00401462,-0.00109946,0.0032
 6953,-0.00283044,-0.00072240,-0.00305064,0.00035519,0.02734818,-0.0269
 1175,0.03312556,-0.04398484,0.00203606,-0.00104039,-0.00063931,0.00945
 371,0.00409095,0.00029358,0.01542198,-0.03617612,0.04433058,-0.0456191
 5,0.06013313,0.01417063,-0.00851295,0.06678088,0.03144867,0.00975768,-
 0.01866074,-0.00162715,0.00303763,-0.00706331,-0.00303112,-0.00865680,
 -0.00400407,-0.00094352,0.00526902,-0.01991121,-0.00672660,0.00056688,
 -0.00444666,-0.00209403,0.03820069,0.00482974,0.02944856,-0.00587968,-
 0.00654630,0.00357869,-0.03409300,-0.00096895,-0.05921743,-0.04258303,
 -0.00074760,0.02463388,0.02199682,0.00405226,0.03513400,0.02600049,-0.
 03695585,0.01407048,0.00702676,0.01636963,0.00297410,-0.03335797,0.023
 18015,-0.01582307,-0.00233922,-0.04630213,-0.01930846,-0.00691563,0.01
 761367,-0.00941459,0.00177199,-0.00233571,0.00033072,0.00748286,-0.052
 10087,0.04807791,-0.01554105,0.02341241,-0.02065924,0.00236106,-0.0023
 3571,-0.00055045,-0.00259392,0.03102417,-0.02686822,-0.02275657,-0.009
 91381,-0.03879255,-0.00596649,-0.00326617,0.00584653,0.00033073,-0.002
 59393,-0.00122151,0.02839233,0.01577391,0.03416753,0.06048650,-0.02481
 239,0.05703014,0.08219342,0.03327109,0.06013050,-0.00298765,0.06811824
 ,0.00820779,0.00396504,0.06811824,-0.15962367,-0.04682706,-0.08584724,
 0.19664330,0.00820779,-0.04682706,0.01041431,-0.00369232,0.06028081,-0
 .01257159,-0.03773955,-0.01562991,-0.05034336,0.00587811,0.00377676,0.
 00089542,0.02341913,-0.00397528,0.05408935,0.02559334,-0.00283247,-0.0
 2048761,-0.01925395,0.00975910,-0.02750242,-0.04341318,0.01428342,-0.0
 2907491,-0.00303462,-0.01284021,-0.00331041,0.02614157,-0.00834650,0.0
 2286604,-0.01975930,-0.02767593,-0.04005786,-0.00685550,0.01395224,-0.
 00541089,0.00844231,-0.00295135,0.02030623,0.01817249,-0.03933056,0.04
 850418,-0.01203737,0.02056146,-0.01653203,0.00580020,0.00209406,-0.006
 09932,0.00690329,0.01667504,-0.02587284,-0.04698804,-0.00072744,-0.041
 46990,-0.00148086,-0.00061355,0.00546769,0.02330637,0.00200711,0.00951
 928,0.02516252,-0.00066612,0.02648293,-0.00275303,-0.40171178,0.992969
 08,-0.14975435,0.25686045,-0.08717268,-0.03241860,0.39236194,0.0875802
 5,0.02516282,0.39236196,-0.96327475,-0.26205317,-0.40468175,0.98359989
 ,0.08758026,-0.26205319,0.04691803,-0.08801152,0.27072276,-0.05654171,
 0.01111168,0.01417084,0.03045095,0.00996321,-0.00315165,0.00082666,-0.
 01534213,0.01224665,-0.01283598,0.01114006,-0.00123028,-0.01213055,-0.
 01267661,-0.01103564,0.02145437,0.02930677,0.01300734,0.02459038,0.001
 96916,-0.01454115,0.00044450,-0.01820694,0.00403563,-0.01861113,0.0240
 5995,-0.00482100,0.03172315,-0.00270742,0.01547144,-0.00039540,-0.0057
 3276,0.00001927,-0.01306899,-0.01561977,-0.00289683,-0.01685835,-0.005
 94734,0.01355009,-0.00819459,0.00400703,0.00001644,0.00351216,-0.00250
 182,-0.01066970,0.02154077,0.03286732,-0.00781461,0.01566428,-0.001537
 89,0.00587155,0.00917918,-0.01307067,-0.00249908,-0.00642375,-0.018258
 76,0.00444213,-0.01841971,-0.43129762,0.02535443,-0.13137917,-0.501300
 55,-0.11346645,-0.45312659,0.00450246,0.03613762,0.01263056,0.00876208
 ,0.03613963,-0.08447115,-0.02326328,-0.02412739,0.06754948,0.01263175,
 -0.02326523,0.01205432,-0.00756840,0.01569643,0.00376605,0.06874992,0.
 15922277,0.21692948,-0.00719482,-0.01299246,-0.00723158,-0.05991357,0.
 16063537,0.15286570,0.28081158,0.00246341,0.00863554,0.01210651,-0.152
 26074,-0.15414624,0.21776946,0.27944076,0.32026514,0.00195893,-0.00289
 222,-0.00752280,-0.23024614,-0.28939694,-0.31146817,0.35804523,-0.2207
 1481,0.27174050,-0.00606973,0.00098022,0.00216822,-0.00164153,-0.01083
 804,0.01051775,-0.35033398,-0.22212942,0.06298462,-0.14408185,-0.01447
 364,0.00828613,-0.00453771,0.00603043,-0.00735499,0.01284841,0.2305726
 3,-0.06391576,0.27089933,-0.14270908,0.12080713,-0.00702109,0.01045907
 ,-0.00829756,0.02054823,-0.00352115,-0.00127416,-0.28442647,0.13577116
 ,-0.11123540,-0.37085726,0.48882037,0.11519072,-0.06922613,0.54285573,
 0.25562376,0.03391014,-0.02008153,0.02096554,-0.02390754,-0.06931167,-
 0.01053739,-0.07352786,0.03151295,0.00742972,-0.00830813,-0.02575379,-
 0.02337575,-0.00446195,0.03499881,0.01648136,-0.03690010,-0.18974738,-
 0.22508863,0.00078064,0.02152942,0.00660437,0.04191187,-0.16513226,-0.
 17942401,-0.31378422,-0.00308499,0.00135653,-0.00644893,0.16058258,0.1
 7626847,-0.21045177,-0.33767131,-0.32623585,-0.00803208,0.01743747,0.0
 0974149,0.21956437,0.31175408,0.31250139,0.37384722,-0.27899146,0.2733
 4922,-0.01078323,0.01626930,0.00616572,-0.00579241,0.00763467,-0.00108
 053,-0.35727158,-0.25437644,0.07477069,-0.15554364,-0.00834642,0.00175
 114,-0.00279609,0.00763538,0.00179901,0.00847976,0.25508748,-0.0783208
 4,0.28798603,-0.17943063,0.09398784,-0.00847151,0.02109158,-0.00284710
 ,-0.00108011,0.00847908,0.00399296,-0.27843441,0.14985997,-0.09513370,
 -0.21086856,0.06815905,-0.19510057,-0.23461148,-0.09307395,-0.21035889
 ,0.02573902,-0.02107587,-0.00597832,-0.01075569,-0.02107587,0.07664541
 ,0.01383389,0.02550291,-0.06818289,-0.00597832,0.01383389,0.02140979,0
 .00136080,-0.01785768,-0.00582915,0.02556479,0.06451158,0.10763548,-0.
 00495179,-0.01017570,0.00003898,-0.01090706,0.06503561,0.08003993,0.13
 795300,-0.00094720,-0.00502020,0.00277164,-0.05618453,-0.07316195,0.10
 794708,0.13744447,0.14066126,0.00552651,-0.00618391,-0.00954122,-0.108
 96166,-0.13783644,-0.12075216,0.15956476,-0.11159475,0.13295431,-0.010
 03153,0.00574866,0.00457854,-0.00970594,-0.00790388,-0.00451194,-0.139
 82729,-0.11211878,0.03841524,-0.05871294,-0.00347984,-0.00344231,0.001
 25215,0.00184865,-0.00185777,0.00657588,0.11374998,-0.03311516,0.13264
 271,-0.05820441,0.04828784,-0.00090899,0.01020770,-0.00603942,0.001287
 20,-0.00288820,-0.01036789,-0.13302092,0.05088491,-0.03188053,-0.17491
 395,0.02916366,-0.11967038,-0.16865180,-0.05281733,-0.17832223,0.02355
 487,-0.01816569,-0.00305386,-0.01352991,-0.01816577,0.06594115,0.01232
 323,0.00734533,-0.03884036,-0.00305391,0.01232331,0.01993495,0.0127376
 2,-0.00279359,-0.01145515,0.01847511,0.07287151,0.07694152,0.00144122,
 -0.01090369,-0.00827976,-0.02121912,0.06693797,0.04463432,0.10110780,0
 .00471034,-0.01555508,-0.00663603,-0.06806498,-0.02369738,0.07341326,0
 .10686584,0.11862823,0.00100480,-0.02178826,-0.00868878,-0.07703291,-0
 .08992740,-0.11177335,0.13288398,-0.08386948,0.09476415,-0.01146616,0.
 02172413,-0.00140395,0.00130278,-0.00358333,0.00261485,-0.12272060,-0.
 07793585,0.00909491,-0.06061369,0.00611001,-0.01154570,-0.00289369,0.0
 0609717,-0.00538187,0.00484982,0.06572868,0.00783265,0.09829245,-0.066
 37182,0.03975905,-0.01068857,0.01225862,0.00020899,0.00837115,-0.00454
 436,0.00183390,-0.09597504,0.05865755,-0.04180195,-0.18683347,0.007226
 59,-0.07539605,-0.17939435,-0.03928060,-0.19498926,0.02537624,0.016793
 22,0.01466512,-0.01087364,0.01679330,-0.02221950,-0.00913789,-0.019047
 16,0.03005607,0.01466517,-0.00913798,0.02935196,0.00174310,0.01386231,
 -0.01440658,0.01699161,0.06903908,0.06870679,-0.00095945,-0.01460080,-
 0.01145054,-0.01032689,0.07497109,0.06860713,0.12039093,0.00026753,-0.
 00587278,-0.00435839,-0.06424210,-0.06633186,0.07223413,0.11463437,0.1
 2675725,-0.00260940,-0.01878695,-0.01181009,-0.05220325,-0.10422461,-0
 .10853132,0.14446563,-0.09305889,0.09602244,-0.01354314,0.01685465,-0.
 00495773,-0.00570527,-0.01099652,-0.01742148,-0.12521722,-0.09899099,0
 .02900842,-0.07197243,0.00198641,-0.00196378,-0.00036595,0.00980382,0.
 00359751,0.00837720,0.08720076,-0.03064215,0.09249505,-0.06621579,0.03
 888006,-0.01379882,0.01406254,-0.00313529,-0.00505299,-0.01180793,-0.0
 0641584,-0.07364324,0.06396118,-0.02932894,-0.07856818,-0.48865016,1.1
 1029463,-0.15069684,0.31843991,-0.17958599,0.04650369,0.49457887,0.120
 56507,-0.04533825,0.49457891,-1.13407976,-0.32838686,-0.49702574,1.138
 39771,0.12056509,-0.32838690,0.14704913,-0.11737729,0.33073184,-0.1461
 8007,0.00093288,0.01437862,0.01072570,0.00160238,-0.00223310,-0.001528
 76,0.00059146,0.01949905,0.01658306,0.02956158,-0.00108061,-0.00283773
 ,-0.00381197,-0.01418282,-0.01668909,0.01377046,0.02459259,0.02667746,
 -0.00084346,-0.00493037,-0.00194086,-0.00594197,-0.02251215,-0.0211286
 4,0.03113161,-0.02030732,0.01940607,-0.00276781,0.00467993,-0.00165903
 ,-0.00312672,-0.00423561,-0.00698502,-0.02523709,-0.02542779,0.0072020
 7,-0.01961463,0.00352748,-0.00148021,0.00146703,0.00203730,0.00294376,
 0.00284993,0.01986301,-0.00866562,0.01636129,-0.01464560,0.00585939,-0
 .00234431,0.00258540,0.00107181,-0.00325496,-0.00323745,-0.00360796,-0
 .01076201,0.01529766,-0.00332324,0.62459534,-0.14304425,0.21362450,1.0
 2465585,0.29679120,0.65188985,-0.01252901,0.03189949,0.00721848,0.0003
 6073,0.03189475,-0.08827661,-0.02129009,-0.02119863,0.05363859,0.00721
 566,-0.02128549,-0.00607573,-0.00893675,0.01335685,-0.00414971,-0.0220
 6146,-0.31377501,-0.46001167,-0.00142024,0.01615302,0.00636300,0.00837
 451,-0.32376456,-0.15090434,-0.55834845,-0.00706693,0.01965155,0.00368
 541,0.30956612,0.12284933,-0.46595174,-0.54865436,-0.51871219,-0.00744
 426,0.02621859,0.01028689,0.46860566,0.54282582,0.49269991,-0.59000487
 ,0.42491977,-0.57186266,0.01358853,-0.02684914,-0.00464192,0.01510718,
 0.02126537,0.00479035,0.56130916,0.43491405,0.02555646,0.28284734,-0.0
 0363393,0.01498648,0.00424323,-0.01194413,0.00840345,-0.02039005,-0.41
 933600,-0.04894638,-0.56591977,0.27314865,-0.12710192,0.00916252,-0.01
 828535,-0.00006142,-0.01495699,0.01183722,0.01572538,0.57171423,-0.266
 70051,0.11143797,0.61312758,-0.16850878,0.23050834,1.06347020,0.322000
 37,0.63747775,-0.01845848,-0.00942275,0.00222571,0.00869445,-0.0094180
 5,0.00081983,0.00712103,0.01772300,-0.03092241,0.00222850,0.00711647,-
 0.02013158,0.00053737,-0.01248681,0.01209697,0.05031417,-0.37874317,-0
 .47357069,-0.00637633,0.02508334,0.00507645,-0.05322878,-0.35978177,-0
 .22364329,-0.66422624,-0.00370655,0.01854706,0.00519448,0.35422203,0.2
 1604452,-0.46229569,-0.68262683,-0.54828969,-0.01204286,0.03313286,0.0
 1177747,0.45649314,0.65451583,0.52560119,-0.64498327,0.55667470,-0.592
 12522,0.01614036,-0.03338829,-0.00784232,0.00929094,0.00926629,0.01784
 540,0.61955197,0.53770860,-0.00768487,0.33510484,-0.00459369,0.0115555
 1,0.00017586,-0.00056220,-0.01094829,-0.00502186,-0.53255271,0.0070776
 5,-0.60340302,0.35350999,-0.06905648,0.00927978,-0.02776708,-0.0037428
 5,0.01200110,0.00451593,0.01091103,0.58212214,-0.33025884,0.06188830\\
 @
 The archive entry for this job was punched.


 NATURE WILL TELL YOU A DIRECT LIE IF SHE CAN.

                                -- CHARLES DARWIN
 Job cpu time:       0 days  0 hours 18 minutes 11.0 seconds.
 Elapsed time:       0 days  0 hours  4 minutes 35.6 seconds.
 File lengths (MBytes):  RWF=     46 Int=      0 D2E=      0 Chk=     76 Scr=      1
 Normal termination of Gaussian 16 at Tue Jun 23 15:23:37 2020.
