 Entering Gaussian System, Link 0=g16
 Input=oxalic_acid.gjf
 Output=oxalic_acid.log
 Initial command:
 /apps/gaussian/g16c01/g16/l1.exe "/jobfs/7276286.gadi-pbs/Gau-27677.inp" -scrdir="/jobfs/7276286.gadi-pbs/"
 Entering Link 1 = /apps/gaussian/g16c01/g16/l1.exe PID=     27678.
  
 Copyright (c) 1988-2019, Gaussian, Inc.  All Rights Reserved.
  
 This is part of the Gaussian(R) 16 program.  It is based on
 the Gaussian(R) 09 system (copyright 2009, Gaussian, Inc.),
 the Gaussian(R) 03 system (copyright 2003, Gaussian, Inc.),
 the Gaussian(R) 98 system (copyright 1998, Gaussian, Inc.),
 the Gaussian(R) 94 system (copyright 1995, Gaussian, Inc.),
 the Gaussian 92(TM) system (copyright 1992, Gaussian, Inc.),
 the Gaussian 90(TM) system (copyright 1990, Gaussian, Inc.),
 the Gaussian 88(TM) system (copyright 1988, Gaussian, Inc.),
 the Gaussian 86(TM) system (copyright 1986, Carnegie Mellon
 University), and the Gaussian 82(TM) system (copyright 1983,
 Carnegie Mellon University). Gaussian is a federally registered
 trademark of Gaussian, Inc.
  
 This software contains proprietary and confidential information,
 including trade secrets, belonging to Gaussian, Inc.
  
 This software is provided under written license and may be
 used, copied, transmitted, or stored only in accord with that
 written license.
  
 The following legend is applicable only to US Government
 contracts under FAR:
  
                    RESTRICTED RIGHTS LEGEND
  
 Use, reproduction and disclosure by the US Government is
 subject to restrictions as set forth in subparagraphs (a)
 and (c) of the Commercial Computer Software - Restricted
 Rights clause in FAR 52.227-19.
  
 Gaussian, Inc.
 340 Quinnipiac St., Bldg. 40, Wallingford CT 06492
  
  
 ---------------------------------------------------------------
 Warning -- This program may not be used in any manner that
 competes with the business of Gaussian, Inc. or will provide
 assistance to any competitor of Gaussian, Inc.  The licensee
 of this program is prohibited from giving any competitor of
 Gaussian, Inc. access to this program.  By using this program,
 the user acknowledges that Gaussian, Inc. is engaged in the
 business of creating and licensing software in the field of
 computational chemistry and represents and warrants to the
 licensee that it is not a competitor of Gaussian, Inc. and that
 it will not use this program in any manner prohibited above.
 ---------------------------------------------------------------
  

 Cite this work as:
 Gaussian 16, Revision C.01,
 M. J. Frisch, G. W. Trucks, H. B. Schlegel, G. E. Scuseria, 
 M. A. Robb, J. R. Cheeseman, G. Scalmani, V. Barone, 
 G. A. Petersson, H. Nakatsuji, X. Li, M. Caricato, A. V. Marenich, 
 J. Bloino, B. G. Janesko, R. Gomperts, B. Mennucci, H. P. Hratchian, 
 J. V. Ortiz, A. F. Izmaylov, J. L. Sonnenberg, D. Williams-Young, 
 F. Ding, F. Lipparini, F. Egidi, J. Goings, B. Peng, A. Petrone, 
 T. Henderson, D. Ranasinghe, V. G. Zakrzewski, J. Gao, N. Rega, 
 G. Zheng, W. Liang, M. Hada, M. Ehara, K. Toyota, R. Fukuda, 
 J. Hasegawa, M. Ishida, T. Nakajima, Y. Honda, O. Kitao, H. Nakai, 
 T. Vreven, K. Throssell, J. A. Montgomery, Jr., J. E. Peralta, 
 F. Ogliaro, M. J. Bearpark, J. J. Heyd, E. N. Brothers, K. N. Kudin, 
 V. N. Staroverov, T. A. Keith, R. Kobayashi, J. Normand, 
 K. Raghavachari, A. P. Rendell, J. C. Burant, S. S. Iyengar, 
 J. Tomasi, M. Cossi, J. M. Millam, M. Klene, C. Adamo, R. Cammi, 
 J. W. Ochterski, R. L. Martin, K. Morokuma, O. Farkas, 
 J. B. Foresman, and D. J. Fox, Gaussian, Inc., Wallingford CT, 2019.
 
 ******************************************
 Gaussian 16:  ES64L-G16RevC.01  3-Jul-2019
                18-Jun-2020 
 ******************************************
 -------------------------------------------------------
 # M06/Def2TZVP Freq=(anharmonic,ReadAnharm) Opt=CalcAll
 -------------------------------------------------------
 1/10=4,18=20,19=15,26=3,38=1,80=1/1,3;
 2/9=110,12=2,17=6,18=5,40=1/2;
 3/5=44,7=101,11=2,25=1,30=1,71=2,74=-54,140=1/1,2,3;
 4//1;
 5/5=2,38=5/2;
 8/6=4,10=90,11=11/1;
 11/6=1,8=1,9=11,15=111,16=1/1,2,10;
 10/6=1/2;
 6/7=2,8=2,9=2,10=2,18=1,28=1/1;
 7/10=1,25=1/1,2,3,16;
 1/10=4,18=20,19=15,26=3,80=1/3(3);
 2/9=110/2;
 7/8=1,9=1,25=1,44=-1,71=2,72=1/16;
 99//99;
 2/9=110/2;
 3/5=44,7=101,11=2,25=1,30=1,71=2,74=-54,140=1/1,2,3;
 4/5=5,16=3,69=1/1;
 5/5=2,38=5/2;
 8/6=4,10=90,11=11/1;
 11/6=1,8=1,9=11,15=111,16=1/1,2,10;
 10/6=1/2;
 7/10=1,25=1/1,2,3,16;
 1/10=4,18=20,19=15,26=3,80=1/3(-8);
 2/9=110/2;
 6/7=2,8=2,9=2,10=2,18=1,19=2,28=1/1;
 7/8=1,9=1,25=1,44=-1,71=1,72=1/16;
 99//99;
 -------------------------------------------------
 Anharmonic frequencies for oxalic acid using VPT2
 -------------------------------------------------
 Symbolic Z-matrix:
 Charge =  0 Multiplicity = 1
 C                    -0.36575   1.61272  -0.07713 
 C                     1.17028   1.56854  -0.11321 
 O                    -0.95865   2.67432  -0.14702 
 O                    -0.90394   0.38884   0.03139 
 H                    -0.18704  -0.28787   0.0673 
 O                     1.70801   2.79078  -0.24018 
 O                     1.76348   0.50763  -0.03371 
 H                     0.99096   3.467    -0.28191 
 

 GradGradGradGradGradGradGradGradGradGradGradGradGradGradGradGradGradGrad
 Berny optimization.
 Initialization pass.
                           ----------------------------
                           !    Initial Parameters    !
                           ! (Angstroms and Degrees)  !
 --------------------------                            --------------------------
 ! Name  Definition              Value          Derivative Info.                !
 --------------------------------------------------------------------------------
 ! R1    R(1,2)                  1.5371         calculate D2E/DX2 analytically  !
 ! R2    R(1,3)                  1.218          calculate D2E/DX2 analytically  !
 ! R3    R(1,4)                  1.3414         calculate D2E/DX2 analytically  !
 ! R4    R(2,6)                  1.3413         calculate D2E/DX2 analytically  !
 ! R5    R(2,7)                  1.2181         calculate D2E/DX2 analytically  !
 ! R6    R(4,5)                  0.9865         calculate D2E/DX2 analytically  !
 ! R7    R(6,8)                  0.9865         calculate D2E/DX2 analytically  !
 ! A1    A(2,1,3)              120.6752         calculate D2E/DX2 analytically  !
 ! A2    A(2,1,4)              112.1244         calculate D2E/DX2 analytically  !
 ! A3    A(3,1,4)              127.2002         calculate D2E/DX2 analytically  !
 ! A4    A(1,2,6)              112.1264         calculate D2E/DX2 analytically  !
 ! A5    A(1,2,7)              120.6744         calculate D2E/DX2 analytically  !
 ! A6    A(6,2,7)              127.199          calculate D2E/DX2 analytically  !
 ! A7    A(1,4,5)              109.7098         calculate D2E/DX2 analytically  !
 ! A8    A(2,6,8)              109.708          calculate D2E/DX2 analytically  !
 ! D1    D(3,1,2,6)             -0.6903         calculate D2E/DX2 analytically  !
 ! D2    D(3,1,2,7)            179.4728         calculate D2E/DX2 analytically  !
 ! D3    D(4,1,2,6)            179.1456         calculate D2E/DX2 analytically  !
 ! D4    D(4,1,2,7)             -0.6912         calculate D2E/DX2 analytically  !
 ! D5    D(2,1,4,5)              0.1226         calculate D2E/DX2 analytically  !
 ! D6    D(3,1,4,5)            179.9454         calculate D2E/DX2 analytically  !
 ! D7    D(1,2,6,8)              0.1223         calculate D2E/DX2 analytically  !
 ! D8    D(7,2,6,8)            179.9461         calculate D2E/DX2 analytically  !
 --------------------------------------------------------------------------------
 Trust Radius=3.00D-01 FncErr=1.00D-07 GrdErr=1.00D-06 EigMax=2.50D+02 EigMin=1.00D-04
 Number of steps in this run=     33 maximum allowed number of steps=    100.
 GradGradGradGradGradGradGradGradGradGradGradGradGradGradGradGradGradGrad

                          Input orientation:                          
 ---------------------------------------------------------------------
 Center     Atomic      Atomic             Coordinates (Angstroms)
 Number     Number       Type             X           Y           Z
 ---------------------------------------------------------------------
      1          6           0       -0.365750    1.612720   -0.077130
      2          6           0        1.170280    1.568540   -0.113210
      3          8           0       -0.958650    2.674320   -0.147020
      4          8           0       -0.903940    0.388840    0.031390
      5          1           0       -0.187040   -0.287870    0.067300
      6          8           0        1.708010    2.790780   -0.240180
      7          8           0        1.763480    0.507630   -0.033710
      8          1           0        0.990960    3.467000   -0.281910
 ---------------------------------------------------------------------
                    Distance matrix (angstroms):
                    1          2          3          4          5
     1  C    0.000000
     2  C    1.537089   0.000000
     3  O    1.217953   2.399216   0.000000
     4  O    1.341383   2.390604   2.293086   0.000000
     5  H    1.914429   2.306764   3.068531   0.986495   0.000000
     6  O    2.390584   1.341322   2.670827   3.558841   3.628201
     7  O    2.399319   1.218087   3.481002   2.670857   2.108922
     8  H    2.306719   1.914358   2.108913   3.628205   3.950782
                    6          7          8
     6  O    0.000000
     7  O    2.293138   0.000000
     8  H    0.986497   3.068593   0.000000
 Stoichiometry    C2H2O4
 Framework group  C1[X(C2H2O4)]
 Deg. of freedom    18
 Full point group                 C1      NOp   1
 Largest Abelian subgroup         C1      NOp   1
 Largest concise Abelian subgroup C1      NOp   1
                         Standard orientation:                         
 ---------------------------------------------------------------------
 Center     Atomic      Atomic             Coordinates (Angstroms)
 Number     Number       Type             X           Y           Z
 ---------------------------------------------------------------------
      1          6           0       -0.745026   -0.188724   -0.002078
      2          6           0        0.745018    0.188648   -0.002073
      3          8           0       -1.090196   -1.356733   -0.006894
      4          8           0       -1.539820    0.891796    0.007189
      5          1           0       -0.988840    1.710077    0.010112
      6          8           0        1.539814   -0.891796    0.007188
      7          8           0        1.090210    1.356790   -0.006896
      8          1           0        0.988835   -1.710081    0.010107
 ---------------------------------------------------------------------
 Rotational constants (GHZ):           5.5666030           3.9037669           2.2946735
 Standard basis: def2TZVP (5D, 7F)
 There are   228 symmetry adapted cartesian basis functions of A   symmetry.
 There are   198 symmetry adapted basis functions of A   symmetry.
   198 basis functions,   322 primitive gaussians,   228 cartesian basis functions
    23 alpha electrons       23 beta electrons
       nuclear repulsion energy       232.4374751765 Hartrees.
 NAtoms=    8 NActive=    8 NUniq=    8 SFac= 1.00D+00 NAtFMM=   60 NAOKFM=F Big=F
 Integral buffers will be    131072 words long.
 Raffenetti 2 integral format.
 Two-electron integral symmetry is turned on.
 One-electron integrals computed using PRISM.
   1 Symmetry operations used in ECPInt.
 ECPInt:  NShTT=    2775 NPrTT=    8916 LenC2=    2729 LenP2D=    7163.
 LDataN:  DoStor=T MaxTD1= 6 Len=  172
 NBasis=   198 RedAO= T EigKep=  4.98D-04  NBF=   198
 NBsUse=   198 1.00D-06 EigRej= -1.00D+00 NBFU=   198
 ExpMin= 9.52D-02 ExpMax= 2.70D+04 ExpMxC= 9.22D+02 IAcc=3 IRadAn=         5 AccDes= 0.00D+00
 Harris functional with IExCor= 1009 and IRadAn=       5 diagonalized for initial guess.
 HarFok:  IExCor= 1009 AccDes= 0.00D+00 IRadAn=         5 IDoV= 1 UseB2=F ITyADJ=14
 ICtDFT=  3500011 ScaDFX=  1.000000  1.000000  1.000000  1.000000
 FoFCou: FMM=F IPFlag=           0 FMFlag=      100000 FMFlg1=           0
         NFxFlg=           0 DoJE=T BraDBF=F KetDBF=T FulRan=T
         wScrn=  0.000000 ICntrl=       500 IOpCl=  0 I1Cent=   200000004 NGrid=           0
         NMat0=    1 NMatS0=      1 NMatT0=    0 NMatD0=    1 NMtDS0=    0 NMtDT0=    0
 Petite list used in FoFCou.
 Requested convergence on RMS density matrix=1.00D-08 within 128 cycles.
 Requested convergence on MAX density matrix=1.00D-06.
 Requested convergence on             energy=1.00D-06.
 No special actions if energy rises.
 Integral accuracy reduced to 1.0D-05 until final iterations.
 Initial convergence to 1.0D-05 achieved.  Increase integral accuracy.
 SCF Done:  E(RM06) =  -378.308798347     A.U. after   12 cycles
            NFock= 12  Conv=0.71D-08     -V/T= 2.0044
 DoSCS=F DFT=T ScalE2(SS,OS)=  1.000000  1.000000
 Range of M.O.s used for correlation:     1   198
 NBasis=   198 NAE=    23 NBE=    23 NFC=     0 NFV=     0
 NROrb=    198 NOA=    23 NOB=    23 NVA=   175 NVB=   175

 **** Warning!!: The largest alpha MO coefficient is  0.15247139D+02

   1 Symmetry operations used in ECPInt.
 ECPInt:  NShTT=    2775 NPrTT=    8916 LenC2=    2729 LenP2D=    7163.
 LDataN:  DoStor=T MaxTD1= 7 Len=  274
 Symmetrizing basis deriv contribution to polar:
 IMax=3 JMax=2 DiffMx= 0.00D+00
 G2DrvN: will do     9 centers at a time, making    1 passes.
 Calling FoFCou, ICntrl=  3107 FMM=F I1Cent=   0 AccDes= 0.00D+00.
 End of G2Drv F.D. properties file   721 does not exist.
 End of G2Drv F.D. properties file   722 does not exist.
 End of G2Drv F.D. properties file   788 does not exist.
          IDoAtm=11111111
          Differentiating once with respect to electric field.
                with respect to dipole field.
          Differentiating once with respect to nuclear coordinates.
 CalDSu exits because no D1Ps are significant.
          There are    27 degrees of freedom in the 1st order CPHF.  IDoFFX=6 NUNeed=     3.
     24 vectors produced by pass  0 Test12= 1.49D-14 3.70D-09 XBig12= 4.36D+01 4.62D+00.
 AX will form    24 AO Fock derivatives at one time.
     24 vectors produced by pass  1 Test12= 1.49D-14 3.70D-09 XBig12= 1.29D+01 7.05D-01.
     24 vectors produced by pass  2 Test12= 1.49D-14 3.70D-09 XBig12= 3.46D-01 1.36D-01.
     24 vectors produced by pass  3 Test12= 1.49D-14 3.70D-09 XBig12= 2.28D-03 1.17D-02.
     24 vectors produced by pass  4 Test12= 1.49D-14 3.70D-09 XBig12= 1.42D-05 8.23D-04.
     24 vectors produced by pass  5 Test12= 1.49D-14 3.70D-09 XBig12= 5.01D-08 4.60D-05.
     19 vectors produced by pass  6 Test12= 1.49D-14 3.70D-09 XBig12= 1.57D-10 1.90D-06.
      5 vectors produced by pass  7 Test12= 1.49D-14 3.70D-09 XBig12= 6.38D-13 1.18D-07.
      2 vectors produced by pass  8 Test12= 1.49D-14 3.70D-09 XBig12= 1.71D-15 1.38D-08.
 InvSVY:  IOpt=1 It=  1 EMax= 3.55D-15
 Solved reduced A of dimension   170 with    27 vectors.
 Isotropic polarizability for W=    0.000000       35.93 Bohr**3.
 End of Minotr F.D. properties file   721 does not exist.
 End of Minotr F.D. properties file   722 does not exist.
 End of Minotr F.D. properties file   788 does not exist.

 **********************************************************************

            Population analysis using the SCF Density.

 **********************************************************************

 Orbital symmetries:
       Occupied  (A) (A) (A) (A) (A) (A) (A) (A) (A) (A) (A) (A)
                 (A) (A) (A) (A) (A) (A) (A) (A) (A) (A) (A)
       Virtual   (A) (A) (A) (A) (A) (A) (A) (A) (A) (A) (A) (A)
                 (A) (A) (A) (A) (A) (A) (A) (A) (A) (A) (A) (A)
                 (A) (A) (A) (A) (A) (A) (A) (A) (A) (A) (A) (A)
                 (A) (A) (A) (A) (A) (A) (A) (A) (A) (A) (A) (A)
                 (A) (A) (A) (A) (A) (A) (A) (A) (A) (A) (A) (A)
                 (A) (A) (A) (A) (A) (A) (A) (A) (A) (A) (A) (A)
                 (A) (A) (A) (A) (A) (A) (A) (A) (A) (A) (A) (A)
                 (A) (A) (A) (A) (A) (A) (A) (A) (A) (A) (A) (A)
                 (A) (A) (A) (A) (A) (A) (A) (A) (A) (A) (A) (A)
                 (A) (A) (A) (A) (A) (A) (A) (A) (A) (A) (A) (A)
                 (A) (A) (A) (A) (A) (A) (A) (A) (A) (A) (A) (A)
                 (A) (A) (A) (A) (A) (A) (A) (A) (A) (A) (A) (A)
                 (A) (A) (A) (A) (A) (A) (A) (A) (A) (A) (A) (A)
                 (A) (A) (A) (A) (A) (A) (A) (A) (A) (A) (A) (A)
                 (A) (A) (A) (A) (A) (A) (A)
 The electronic state is 1-A.
 Alpha  occ. eigenvalues --  -19.29385 -19.29382 -19.24715 -19.24714 -10.41937
 Alpha  occ. eigenvalues --  -10.41916  -1.17598  -1.14506  -1.09987  -1.07796
 Alpha  occ. eigenvalues --   -0.72687  -0.65962  -0.65089  -0.52797  -0.52497
 Alpha  occ. eigenvalues --   -0.50042  -0.48927  -0.47168  -0.41871  -0.39024
 Alpha  occ. eigenvalues --   -0.38759  -0.37725  -0.32070
 Alpha virt. eigenvalues --   -0.08928   0.01562   0.04659   0.05529   0.12549
 Alpha virt. eigenvalues --    0.12883   0.18674   0.20070   0.22911   0.23337
 Alpha virt. eigenvalues --    0.25830   0.25927   0.29081   0.30098   0.30194
 Alpha virt. eigenvalues --    0.31353   0.33602   0.40068   0.40500   0.40810
 Alpha virt. eigenvalues --    0.47390   0.47660   0.48337   0.50946   0.52462
 Alpha virt. eigenvalues --    0.54464   0.61117   0.61284   0.61688   0.64433
 Alpha virt. eigenvalues --    0.65693   0.66787   0.67366   0.68977   0.72694
 Alpha virt. eigenvalues --    0.80987   0.83366   0.86856   0.93251   0.94934
 Alpha virt. eigenvalues --    0.97829   0.99383   1.07978   1.22881   1.26665
 Alpha virt. eigenvalues --    1.27453   1.28772   1.31080   1.38881   1.41472
 Alpha virt. eigenvalues --    1.44586   1.46696   1.49832   1.52806   1.65381
 Alpha virt. eigenvalues --    1.66819   1.69776   1.71468   1.79589   1.80884
 Alpha virt. eigenvalues --    1.83215   1.83569   1.83983   1.86825   1.89256
 Alpha virt. eigenvalues --    1.92811   2.03819   2.04030   2.10140   2.11198
 Alpha virt. eigenvalues --    2.17088   2.20632   2.21972   2.22627   2.24930
 Alpha virt. eigenvalues --    2.29390   2.39026   2.39446   2.48011   2.51777
 Alpha virt. eigenvalues --    2.52346   2.56192   2.58831   2.64461   2.74341
 Alpha virt. eigenvalues --    2.75467   2.79319   2.86573   2.87877   2.90959
 Alpha virt. eigenvalues --    2.93997   2.94862   2.95988   3.00797   3.04900
 Alpha virt. eigenvalues --    3.10385   3.13740   3.14331   3.19554   3.23785
 Alpha virt. eigenvalues --    3.24966   3.28557   3.32201   3.32773   3.34002
 Alpha virt. eigenvalues --    3.34610   3.47018   3.53466   3.54411   3.56872
 Alpha virt. eigenvalues --    3.75008   3.76728   3.90517   3.99299   4.05094
 Alpha virt. eigenvalues --    4.22264   4.25892   4.34443   4.50949   4.52146
 Alpha virt. eigenvalues --    4.74256   5.12381   5.12753   5.16089   5.18297
 Alpha virt. eigenvalues --    5.18563   5.20466   5.27763   5.28488   5.32310
 Alpha virt. eigenvalues --    5.32429   5.43675   5.47067   5.52536   5.55680
 Alpha virt. eigenvalues --    5.59024   5.69137   5.80213   5.84028   5.87717
 Alpha virt. eigenvalues --    5.91694   6.06734   6.10297   6.11389   6.22355
 Alpha virt. eigenvalues --    6.28043   6.33448   6.34107   6.35754   6.40957
 Alpha virt. eigenvalues --    6.45296   6.45815   6.48589   6.53614   6.68338
 Alpha virt. eigenvalues --    6.71756   6.76215   6.77696   6.78681   6.83493
 Alpha virt. eigenvalues --    6.85480   6.92412   6.96479   7.05629   7.09202
 Alpha virt. eigenvalues --    7.10170   7.12625   7.25653   7.43571  22.99877
 Alpha virt. eigenvalues --   23.23161  43.61256  43.70856  43.82199  43.99338
          Condensed to atoms (all electrons):
               1          2          3          4          5          6
     1  C    4.577491   0.400268   0.446712   0.303768  -0.025405  -0.065702
     2  C    0.400268   4.577481  -0.059811  -0.065711  -0.013882   0.303756
     3  O    0.446712  -0.059811   8.051840  -0.054623   0.003357  -0.012110
     4  O    0.303768  -0.065711  -0.054623   7.934912   0.280538   0.004263
     5  H   -0.025405  -0.013882   0.003357   0.280538   0.352781   0.001711
     6  O   -0.065702   0.303756  -0.012110   0.004263   0.001711   7.934862
     7  O   -0.059816   0.446700   0.003217  -0.012112   0.033157  -0.054625
     8  H   -0.013888  -0.025413   0.033159   0.001712  -0.000196   0.280535
               7          8
     1  C   -0.059816  -0.013888
     2  C    0.446700  -0.025413
     3  O    0.003217   0.033159
     4  O   -0.012112   0.001712
     5  H    0.033157  -0.000196
     6  O   -0.054625   0.280535
     7  O    8.052007   0.003359
     8  H    0.003359   0.352791
 Mulliken charges:
               1
     1  C    0.436572
     2  C    0.436612
     3  O   -0.411740
     4  O   -0.392747
     5  H    0.367939
     6  O   -0.392691
     7  O   -0.411887
     8  H    0.367942
 Sum of Mulliken charges =  -0.00000
 Mulliken charges with hydrogens summed into heavy atoms:
               1
     1  C    0.436572
     2  C    0.436612
     3  O   -0.411740
     4  O   -0.024808
     6  O   -0.024749
     7  O   -0.411887
 APT charges:
               1
     1  C    1.029766
     2  C    1.029600
     3  O   -0.703717
     4  O   -0.707759
     5  H    0.381751
     6  O   -0.707720
     7  O   -0.703681
     8  H    0.381760
 Sum of APT charges =  -0.00000
 APT charges with hydrogens summed into heavy atoms:
               1
     1  C    1.029766
     2  C    1.029600
     3  O   -0.703717
     4  O   -0.326008
     6  O   -0.325960
     7  O   -0.703681
 Electronic spatial extent (au):  <R**2>=            484.1538
 Charge=             -0.0000 electrons
 Dipole moment (field-independent basis, Debye):
    X=              0.0000    Y=             -0.0010    Z=              0.0250  Tot=              0.0250
 Quadrupole moment (field-independent basis, Debye-Ang):
   XX=            -40.4565   YY=            -31.4979   ZZ=            -31.5637
   XY=             -5.7505   XZ=              0.0000   YZ=              0.0000
 Traceless Quadrupole moment (field-independent basis, Debye-Ang):
   XX=             -5.9505   YY=              3.0081   ZZ=              2.9423
   XY=             -5.7505   XZ=              0.0000   YZ=              0.0000
 Octapole moment (field-independent basis, Debye-Ang**2):
  XXX=              0.0001  YYY=             -0.0023  ZZZ=              0.0074  XYY=             -0.0005
  XXY=             -0.0020  XXZ=             -0.0132  XZZ=             -0.0002  YZZ=             -0.0007
  YYZ=              0.1771  XYZ=              0.0106
 Hexadecapole moment (field-independent basis, Debye-Ang**3):
 XXXX=           -327.3361 YYYY=           -195.1661 ZZZZ=            -25.4460 XXXY=             -1.6272
 XXXZ=              0.0000 YYYX=            -31.9499 YYYZ=              0.0001 ZZZX=              0.0000
 ZZZY=              0.0000 XXYY=            -91.5594 XXZZ=            -54.1394 YYZZ=            -40.6794
 XXYZ=              0.0000 YYXZ=             -0.0000 ZZXY=             -0.3446
 N-N= 2.324374751765D+02 E-N=-1.355723646789D+03  KE= 3.766512445284D+02
  Exact polarizability:      36.998       0.063      48.709      -0.000      -0.000      22.098
 Approx polarizability:      45.988       1.454      79.420      -0.000      -0.000      30.502
   1 Symmetry operations used in ECPInt.
 ECPInt:  NShTT=    2775 NPrTT=    8916 LenC2=    2729 LenP2D=    7163.
 LDataN:  DoStor=T MaxTD1= 8 Len=  415
 Calling FoFJK, ICntrl=    100127 FMM=F ISym2X=0 I1Cent= 0 IOpClX= 0 NMat=1 NMatS=1 NMatT=0.
 ***** Axes restored to original set *****
 -------------------------------------------------------------------
 Center     Atomic                   Forces (Hartrees/Bohr)
 Number     Number              X              Y              Z
 -------------------------------------------------------------------
      1        6          -0.014434801    0.006302351   -0.000427764
      2        6           0.014505439   -0.006537246   -0.000084495
      3        8           0.013914737   -0.039084816    0.002774175
      4        8           0.005560846    0.018763296   -0.001478758
      5        1          -0.004081673    0.013792301   -0.000873795
      6        8          -0.005544396   -0.018693834    0.001987430
      7        8          -0.014015941    0.039212871   -0.003148574
      8        1           0.004095790   -0.013754923    0.001251781
 -------------------------------------------------------------------
 Cartesian Forces:  Max     0.039212871 RMS     0.014661283
 FormGI is forming the generalized inverse of G from B-inverse, IUseBI=4.

 GradGradGradGradGradGradGradGradGradGradGradGradGradGradGradGradGradGrad
 Berny optimization.
 Internal  Forces:  Max     0.041186359 RMS     0.016491663
 Search for a local minimum.
 Step number   1 out of a maximum of   33
 All quantities printed in internal units (Hartrees-Bohrs-Radians)
 Mixed Optimization -- RFO/linear search
 Second derivative matrix not updated -- analytic derivatives used.
 ITU=  0
     Eigenvalues ---    0.00899   0.02553   0.03174   0.05051   0.06680
     Eigenvalues ---    0.13252   0.13359   0.19225   0.22037   0.22425
     Eigenvalues ---    0.27365   0.35145   0.40624   0.40852   0.46440
     Eigenvalues ---    0.47037   0.77916   0.81008
 RFO step:  Lambda=-9.84051648D-03 EMin= 8.99037598D-03
 Linear search not attempted -- first point.
 Iteration  1 RMS(Cart)=  0.04493383 RMS(Int)=  0.00048359
 Iteration  2 RMS(Cart)=  0.00037502 RMS(Int)=  0.00001147
 Iteration  3 RMS(Cart)=  0.00000018 RMS(Int)=  0.00001147
 Variable       Old X    -DE/DX   Delta X   Delta X   Delta X     New X
                                 (Linear)    (Quad)   (Total)
    R1        2.90468  -0.00097   0.00000   0.00133   0.00133   2.90601
    R2        2.30160  -0.04100   0.00000  -0.04493  -0.04493   2.25667
    R3        2.53485  -0.03049   0.00000  -0.05746  -0.05746   2.47739
    R4        2.53473  -0.03045   0.00000  -0.05732  -0.05732   2.47741
    R5        2.30185  -0.04119   0.00000  -0.04522  -0.04522   2.25663
    R6        1.86420  -0.01245   0.00000  -0.02169  -0.02169   1.84251
    R7        1.86421  -0.01245   0.00000  -0.02170  -0.02170   1.84251
    A1        2.10618   0.00521   0.00000   0.01028   0.01028   2.11646
    A2        1.95694   0.00552   0.00000   0.01485   0.01484   1.97178
    A3        2.22006  -0.01073   0.00000  -0.02511  -0.02512   2.19495
    A4        1.95697   0.00552   0.00000   0.01481   0.01481   1.97178
    A5        2.10617   0.00521   0.00000   0.01029   0.01029   2.11646
    A6        2.22004  -0.01073   0.00000  -0.02510  -0.02510   2.19494
    A7        1.91480  -0.01350   0.00000  -0.04759  -0.04759   1.86721
    A8        1.91477  -0.01349   0.00000  -0.04756  -0.04756   1.86721
    D1       -0.01205   0.00016   0.00000   0.00703   0.00703  -0.00501
    D2        3.13239   0.00002   0.00000   0.00453   0.00451   3.13690
    D3        3.12668   0.00030   0.00000   0.00955   0.00958   3.13626
    D4       -0.01206   0.00016   0.00000   0.00705   0.00705  -0.00502
    D5        0.00214   0.00000   0.00000  -0.00045  -0.00042   0.00172
    D6        3.14064   0.00019   0.00000   0.00235   0.00233  -3.14021
    D7        0.00213   0.00000   0.00000  -0.00044  -0.00042   0.00172
    D8        3.14065   0.00019   0.00000   0.00234   0.00232  -3.14021
         Item               Value     Threshold  Converged?
 Maximum Force            0.041186     0.000450     NO 
 RMS     Force            0.016492     0.000300     NO 
 Maximum Displacement     0.122804     0.001800     NO 
 RMS     Displacement     0.044918     0.001200     NO 
 Predicted change in Energy=-5.010070D-03
 GradGradGradGradGradGradGradGradGradGradGradGradGradGradGradGradGradGrad

                          Input orientation:                          
 ---------------------------------------------------------------------
 Center     Atomic      Atomic             Coordinates (Angstroms)
 Number     Number       Type             X           Y           Z
 ---------------------------------------------------------------------
      1          6           0       -0.366250    1.609235   -0.079965
      2          6           0        1.170641    1.571418   -0.116603
      3          8           0       -0.962634    2.641479   -0.149703
      4          8           0       -0.904879    0.419253    0.031760
      5          1           0       -0.172035   -0.222885    0.067186
      6          8           0        1.709107    2.760868   -0.234743
      7          8           0        1.767142    0.539600   -0.042094
      8          1           0        0.976258    3.402992   -0.270308
 ---------------------------------------------------------------------
                    Distance matrix (angstroms):
                    1          2          3          4          5
     1  C    0.000000
     2  C    1.537793   0.000000
     3  O    1.194180   2.386837   0.000000
     4  O    1.310977   2.378503   2.230371   0.000000
     5  H    1.848252   2.248573   2.979374   0.975015   0.000000
     6  O    2.378513   1.310990   2.675759   3.519532   3.540147
     7  O    2.386822   1.194158   3.446905   2.675749   2.086561
     8  H    2.248582   1.848262   2.086564   3.540144   3.818306
                    6          7          8
     6  O    0.000000
     7  O    2.230362   0.000000
     8  H    0.975015   2.979361   0.000000
 Stoichiometry    C2H2O4
 Framework group  C1[X(C2H2O4)]
 Deg. of freedom    18
 Full point group                 C1      NOp   1
 Largest Abelian subgroup         C1      NOp   1
 Largest concise Abelian subgroup C1      NOp   1
                         Standard orientation:                         
 ---------------------------------------------------------------------
 Center     Atomic      Atomic             Coordinates (Angstroms)
 Number     Number       Type             X           Y           Z
 ---------------------------------------------------------------------
      1          6           0       -0.752190   -0.159408   -0.000430
      2          6           0        0.752189    0.159420   -0.000429
      3          8           0       -1.146848   -1.286486   -0.002825
      4          8           0       -1.503023    0.915255    0.002790
      5          1           0       -0.901727    1.682782    0.002860
      6          8           0        1.503028   -0.915254    0.002790
      7          8           0        1.146844    1.286476   -0.002825
      8          1           0        0.901729   -1.682780    0.002860
 ---------------------------------------------------------------------
 Rotational constants (GHZ):           5.8865760           3.8944726           2.3438408
 Standard basis: def2TZVP (5D, 7F)
 There are   228 symmetry adapted cartesian basis functions of A   symmetry.
 There are   198 symmetry adapted basis functions of A   symmetry.
   198 basis functions,   322 primitive gaussians,   228 cartesian basis functions
    23 alpha electrons       23 beta electrons
       nuclear repulsion energy       235.8266917624 Hartrees.
 NAtoms=    8 NActive=    8 NUniq=    8 SFac= 1.00D+00 NAtFMM=   60 NAOKFM=F Big=F
 Integral buffers will be    131072 words long.
 Raffenetti 2 integral format.
 Two-electron integral symmetry is turned on.
 One-electron integrals computed using PRISM.
   1 Symmetry operations used in ECPInt.
 ECPInt:  NShTT=    2775 NPrTT=    8916 LenC2=    2729 LenP2D=    7185.
 LDataN:  DoStor=T MaxTD1= 6 Len=  172
 NBasis=   198 RedAO= T EigKep=  4.80D-04  NBF=   198
 NBsUse=   198 1.00D-06 EigRej= -1.00D+00 NBFU=   198
 Initial guess from the checkpoint file:  "/jobfs/7276286.gadi-pbs/Gau-27678.chk"
 B after Tr=     0.000000    0.000000    0.000000
         Rot=    0.999836    0.000000   -0.000000    0.018102 Ang=   2.07 deg.
 ExpMin= 9.52D-02 ExpMax= 2.70D+04 ExpMxC= 9.22D+02 IAcc=3 IRadAn=         5 AccDes= 0.00D+00
 Harris functional with IExCor= 1009 and IRadAn=       5 diagonalized for initial guess.
 HarFok:  IExCor= 1009 AccDes= 0.00D+00 IRadAn=         5 IDoV= 1 UseB2=F ITyADJ=14
 ICtDFT=  3500011 ScaDFX=  1.000000  1.000000  1.000000  1.000000
 FoFCou: FMM=F IPFlag=           0 FMFlag=      100000 FMFlg1=           0
         NFxFlg=           0 DoJE=T BraDBF=F KetDBF=T FulRan=T
         wScrn=  0.000000 ICntrl=       500 IOpCl=  0 I1Cent=   200000004 NGrid=           0
         NMat0=    1 NMatS0=      1 NMatT0=    0 NMatD0=    1 NMtDS0=    0 NMtDT0=    0
 Petite list used in FoFCou.
 Requested convergence on RMS density matrix=1.00D-08 within 128 cycles.
 Requested convergence on MAX density matrix=1.00D-06.
 Requested convergence on             energy=1.00D-06.
 No special actions if energy rises.
 Integral accuracy reduced to 1.0D-05 until final iterations.
 Initial convergence to 1.0D-05 achieved.  Increase integral accuracy.
 SCF Done:  E(RM06) =  -378.313524918     A.U. after   12 cycles
            NFock= 12  Conv=0.27D-08     -V/T= 2.0033
 DoSCS=F DFT=T ScalE2(SS,OS)=  1.000000  1.000000
 Range of M.O.s used for correlation:     1   198
 NBasis=   198 NAE=    23 NBE=    23 NFC=     0 NFV=     0
 NROrb=    198 NOA=    23 NOB=    23 NVA=   175 NVB=   175

 **** Warning!!: The largest alpha MO coefficient is  0.15087558D+02

   1 Symmetry operations used in ECPInt.
 ECPInt:  NShTT=    2775 NPrTT=    8916 LenC2=    2729 LenP2D=    7185.
 LDataN:  DoStor=T MaxTD1= 7 Len=  274
 Symmetrizing basis deriv contribution to polar:
 IMax=3 JMax=2 DiffMx= 0.00D+00
 G2DrvN: will do     9 centers at a time, making    1 passes.
 Calling FoFCou, ICntrl=  3107 FMM=F I1Cent=   0 AccDes= 0.00D+00.
 End of G2Drv F.D. properties file   721 does not exist.
 End of G2Drv F.D. properties file   722 does not exist.
 End of G2Drv F.D. properties file   788 does not exist.
          IDoAtm=11111111
          Differentiating once with respect to electric field.
                with respect to dipole field.
          Differentiating once with respect to nuclear coordinates.
 CalDSu exits because no D1Ps are significant.
          There are    27 degrees of freedom in the 1st order CPHF.  IDoFFX=6 NUNeed=     3.
     24 vectors produced by pass  0 Test12= 1.49D-14 3.70D-09 XBig12= 3.84D+01 4.25D+00.
 AX will form    24 AO Fock derivatives at one time.
     24 vectors produced by pass  1 Test12= 1.49D-14 3.70D-09 XBig12= 1.05D+01 6.46D-01.
     24 vectors produced by pass  2 Test12= 1.49D-14 3.70D-09 XBig12= 2.64D-01 1.16D-01.
     24 vectors produced by pass  3 Test12= 1.49D-14 3.70D-09 XBig12= 1.67D-03 9.99D-03.
     24 vectors produced by pass  4 Test12= 1.49D-14 3.70D-09 XBig12= 1.11D-05 6.56D-04.
     24 vectors produced by pass  5 Test12= 1.49D-14 3.70D-09 XBig12= 3.78D-08 4.55D-05.
     19 vectors produced by pass  6 Test12= 1.49D-14 3.70D-09 XBig12= 1.09D-10 1.42D-06.
      5 vectors produced by pass  7 Test12= 1.49D-14 3.70D-09 XBig12= 3.58D-13 9.67D-08.
      1 vectors produced by pass  8 Test12= 1.49D-14 3.70D-09 XBig12= 1.28D-15 6.15D-09.
 InvSVY:  IOpt=1 It=  1 EMax= 3.55D-15
 Solved reduced A of dimension   169 with    27 vectors.
 Isotropic polarizability for W=    0.000000       34.83 Bohr**3.
 End of Minotr F.D. properties file   721 does not exist.
 End of Minotr F.D. properties file   722 does not exist.
 End of Minotr F.D. properties file   788 does not exist.
   1 Symmetry operations used in ECPInt.
 ECPInt:  NShTT=    2775 NPrTT=    8916 LenC2=    2729 LenP2D=    7185.
 LDataN:  DoStor=T MaxTD1= 8 Len=  415
 Calling FoFJK, ICntrl=    100127 FMM=F ISym2X=0 I1Cent= 0 IOpClX= 0 NMat=1 NMatS=1 NMatT=0.
 ***** Axes restored to original set *****
 -------------------------------------------------------------------
 Center     Atomic                   Forces (Hartrees/Bohr)
 Number     Number              X              Y              Z
 -------------------------------------------------------------------
      1        6           0.002003866   -0.000290829   -0.000050937
      2        6          -0.002017596    0.000325236    0.000001213
      3        8          -0.001348543    0.002832213   -0.000241137
      4        8          -0.000924423   -0.002326433    0.000277296
      5        1           0.000061431   -0.000391199    0.000035070
      6        8           0.000923137    0.002328567   -0.000165690
      7        8           0.001363631   -0.002868767    0.000172354
      8        1          -0.000061502    0.000391212   -0.000028170
 -------------------------------------------------------------------
 Cartesian Forces:  Max     0.002868767 RMS     0.001311131
 FormGI is forming the generalized inverse of G from B-inverse, IUseBI=4.

 GradGradGradGradGradGradGradGradGradGradGradGradGradGradGradGradGradGrad
 Berny optimization.
 Using GEDIIS/GDIIS optimizer.
 Internal  Forces:  Max     0.003172586 RMS     0.001269914
 Search for a local minimum.
 Step number   2 out of a maximum of   33
 All quantities printed in internal units (Hartrees-Bohrs-Radians)
 Mixed Optimization -- RFO/linear search
 Second derivative matrix not updated -- analytic derivatives used.
 DE= -4.73D-03 DEPred=-5.01D-03 R= 9.43D-01
 TightC=F SS=  1.41D+00  RLast= 1.35D-01 DXNew= 5.0454D-01 4.0532D-01
 Trust test= 9.43D-01 RLast= 1.35D-01 DXMaxT set to 4.05D-01
 ITU=  1  0
 Use linear search instead of GDIIS.
     Eigenvalues ---    0.00985   0.02710   0.03343   0.05174   0.06981
     Eigenvalues ---    0.16078   0.16601   0.20087   0.24124   0.24301
     Eigenvalues ---    0.26463   0.36069   0.46641   0.47256   0.53077
     Eigenvalues ---    0.53646   0.92453   0.95602
 RFO step:  Lambda=-1.03286376D-05 EMin= 9.85226021D-03
 Quintic linear search produced a step of -0.06043.
 Iteration  1 RMS(Cart)=  0.00432813 RMS(Int)=  0.00000683
 Iteration  2 RMS(Cart)=  0.00000887 RMS(Int)=  0.00000069
 Iteration  3 RMS(Cart)=  0.00000000 RMS(Int)=  0.00000069
 Variable       Old X    -DE/DX   Delta X   Delta X   Delta X     New X
                                 (Linear)    (Quad)   (Total)
    R1        2.90601   0.00021  -0.00008  -0.00061  -0.00069   2.90532
    R2        2.25667   0.00314   0.00272   0.00026   0.00298   2.25965
    R3        2.47739   0.00285   0.00347   0.00171   0.00519   2.48257
    R4        2.47741   0.00284   0.00346   0.00170   0.00516   2.48257
    R5        2.25663   0.00317   0.00273   0.00029   0.00302   2.25965
    R6        1.84251   0.00030   0.00131  -0.00097   0.00034   1.84285
    R7        1.84251   0.00030   0.00131  -0.00097   0.00034   1.84285
    A1        2.11646  -0.00028  -0.00062   0.00045  -0.00017   2.11629
    A2        1.97178  -0.00003  -0.00090   0.00109   0.00019   1.97197
    A3        2.19495   0.00030   0.00152  -0.00154  -0.00002   2.19493
    A4        1.97178  -0.00003  -0.00089   0.00108   0.00019   1.97197
    A5        2.11646  -0.00028  -0.00062   0.00045  -0.00017   2.11629
    A6        2.19494   0.00031   0.00152  -0.00153  -0.00001   2.19493
    A7        1.86721   0.00047   0.00288  -0.00235   0.00053   1.86774
    A8        1.86721   0.00047   0.00287  -0.00234   0.00053   1.86774
    D1       -0.00501   0.00006  -0.00043   0.00701   0.00658   0.00157
    D2        3.13690   0.00004  -0.00027   0.00643   0.00615  -3.14013
    D3        3.13626   0.00008  -0.00058   0.00759   0.00701  -3.13992
    D4       -0.00502   0.00006  -0.00043   0.00701   0.00658   0.00157
    D5        0.00172  -0.00001   0.00003  -0.00223  -0.00221  -0.00049
    D6       -3.14021   0.00001  -0.00014  -0.00162  -0.00176   3.14121
    D7        0.00172  -0.00001   0.00003  -0.00223  -0.00221  -0.00049
    D8       -3.14021   0.00001  -0.00014  -0.00162  -0.00176   3.14121
         Item               Value     Threshold  Converged?
 Maximum Force            0.003173     0.000450     NO 
 RMS     Force            0.001270     0.000300     NO 
 Maximum Displacement     0.008677     0.001800     NO 
 RMS     Displacement     0.004331     0.001200     NO 
 Predicted change in Energy=-2.448256D-05
 GradGradGradGradGradGradGradGradGradGradGradGradGradGradGradGradGradGrad

                          Input orientation:                          
 ---------------------------------------------------------------------
 Center     Atomic      Atomic             Coordinates (Angstroms)
 Number     Number       Type             X           Y           Z
 ---------------------------------------------------------------------
      1          6           0       -0.366105    1.609064   -0.081324
      2          6           0        1.170425    1.571370   -0.117962
      3          8           0       -0.963258    2.642465   -0.154294
      4          8           0       -0.905888    0.417006    0.034855
      5          1           0       -0.173316   -0.225706    0.070474
      6          8           0        1.710260    2.763599   -0.232126
      7          8           0        1.767540    0.537842   -0.046480
      8          1           0        0.977692    3.406321   -0.267613
 ---------------------------------------------------------------------
                    Distance matrix (angstroms):
                    1          2          3          4          5
     1  C    0.000000
     2  C    1.537429   0.000000
     3  O    1.195757   2.387712   0.000000
     4  O    1.313722   2.380543   2.234219   0.000000
     5  H    1.851105   2.251806   2.983442   0.975196   0.000000
     6  O    2.380542   1.313722   2.677392   3.524487   3.546176
     7  O    2.387712   1.195757   3.449394   2.677393   2.088925
     8  H    2.251805   1.851105   2.088924   3.546176   3.825015
                    6          7          8
     6  O    0.000000
     7  O    2.234220   0.000000
     8  H    0.975196   2.983443   0.000000
 Stoichiometry    C2H2O4
 Framework group  C1[X(C2H2O4)]
 Deg. of freedom    18
 Full point group                 C1      NOp   1
 Largest Abelian subgroup         C1      NOp   1
 Largest concise Abelian subgroup C1      NOp   1
                         Standard orientation:                         
 ---------------------------------------------------------------------
 Center     Atomic      Atomic             Coordinates (Angstroms)
 Number     Number       Type             X           Y           Z
 ---------------------------------------------------------------------
      1          6           0       -0.751554   -0.161520    0.000139
      2          6           0        0.751554    0.161520    0.000139
      3          8           0       -1.143319   -1.291278    0.000886
      4          8           0       -1.507230    0.913104   -0.000873
      5          1           0       -0.908564    1.682913   -0.000939
      6          8           0        1.507230   -0.913104   -0.000873
      7          8           0        1.143320    1.291279    0.000886
      8          1           0        0.908563   -1.682913   -0.000939
 ---------------------------------------------------------------------
 Rotational constants (GHZ):           5.8672605           3.8899198           2.3391167
 Standard basis: def2TZVP (5D, 7F)
 There are   228 symmetry adapted cartesian basis functions of A   symmetry.
 There are   198 symmetry adapted basis functions of A   symmetry.
   198 basis functions,   322 primitive gaussians,   228 cartesian basis functions
    23 alpha electrons       23 beta electrons
       nuclear repulsion energy       235.5540364200 Hartrees.
 NAtoms=    8 NActive=    8 NUniq=    8 SFac= 1.00D+00 NAtFMM=   60 NAOKFM=F Big=F
 Integral buffers will be    131072 words long.
 Raffenetti 2 integral format.
 Two-electron integral symmetry is turned on.
 One-electron integrals computed using PRISM.
   1 Symmetry operations used in ECPInt.
 ECPInt:  NShTT=    2775 NPrTT=    8916 LenC2=    2729 LenP2D=    7183.
 LDataN:  DoStor=T MaxTD1= 6 Len=  172
 NBasis=   198 RedAO= T EigKep=  4.81D-04  NBF=   198
 NBsUse=   198 1.00D-06 EigRej= -1.00D+00 NBFU=   198
 Initial guess from the checkpoint file:  "/jobfs/7276286.gadi-pbs/Gau-27678.chk"
 B after Tr=    -0.000000    0.000000   -0.000000
         Rot=    0.999999   -0.000000    0.000000   -0.001420 Ang=  -0.16 deg.
 Requested convergence on RMS density matrix=1.00D-08 within 128 cycles.
 Requested convergence on MAX density matrix=1.00D-06.
 Requested convergence on             energy=1.00D-06.
 No special actions if energy rises.
 SCF Done:  E(RM06) =  -378.313549183     A.U. after    8 cycles
            NFock=  8  Conv=0.69D-08     -V/T= 2.0034
 DoSCS=F DFT=T ScalE2(SS,OS)=  1.000000  1.000000
 Range of M.O.s used for correlation:     1   198
 NBasis=   198 NAE=    23 NBE=    23 NFC=     0 NFV=     0
 NROrb=    198 NOA=    23 NOB=    23 NVA=   175 NVB=   175

 **** Warning!!: The largest alpha MO coefficient is  0.15111437D+02

   1 Symmetry operations used in ECPInt.
 ECPInt:  NShTT=    2775 NPrTT=    8916 LenC2=    2729 LenP2D=    7183.
 LDataN:  DoStor=T MaxTD1= 7 Len=  274
 Symmetrizing basis deriv contribution to polar:
 IMax=3 JMax=2 DiffMx= 0.00D+00
 G2DrvN: will do     9 centers at a time, making    1 passes.
 Calling FoFCou, ICntrl=  3107 FMM=F I1Cent=   0 AccDes= 0.00D+00.
 End of G2Drv F.D. properties file   721 does not exist.
 End of G2Drv F.D. properties file   722 does not exist.
 End of G2Drv F.D. properties file   788 does not exist.
          IDoAtm=11111111
          Differentiating once with respect to electric field.
                with respect to dipole field.
          Differentiating once with respect to nuclear coordinates.
 CalDSu exits because no D1Ps are significant.
          There are    27 degrees of freedom in the 1st order CPHF.  IDoFFX=6 NUNeed=     3.
     24 vectors produced by pass  0 Test12= 1.49D-14 3.70D-09 XBig12= 3.87D+01 4.28D+00.
 AX will form    24 AO Fock derivatives at one time.
     24 vectors produced by pass  1 Test12= 1.49D-14 3.70D-09 XBig12= 1.06D+01 6.56D-01.
     24 vectors produced by pass  2 Test12= 1.49D-14 3.70D-09 XBig12= 2.68D-01 1.18D-01.
     24 vectors produced by pass  3 Test12= 1.49D-14 3.70D-09 XBig12= 1.70D-03 1.00D-02.
     24 vectors produced by pass  4 Test12= 1.49D-14 3.70D-09 XBig12= 1.12D-05 6.67D-04.
     24 vectors produced by pass  5 Test12= 1.49D-14 3.70D-09 XBig12= 3.84D-08 4.57D-05.
     19 vectors produced by pass  6 Test12= 1.49D-14 3.70D-09 XBig12= 1.10D-10 1.40D-06.
      5 vectors produced by pass  7 Test12= 1.49D-14 3.70D-09 XBig12= 3.62D-13 9.74D-08.
      1 vectors produced by pass  8 Test12= 1.49D-14 3.70D-09 XBig12= 1.26D-15 6.64D-09.
 InvSVY:  IOpt=1 It=  1 EMax= 1.78D-15
 Solved reduced A of dimension   169 with    27 vectors.
 Isotropic polarizability for W=    0.000000       34.91 Bohr**3.
 End of Minotr F.D. properties file   721 does not exist.
 End of Minotr F.D. properties file   722 does not exist.
 End of Minotr F.D. properties file   788 does not exist.
   1 Symmetry operations used in ECPInt.
 ECPInt:  NShTT=    2775 NPrTT=    8916 LenC2=    2729 LenP2D=    7183.
 LDataN:  DoStor=T MaxTD1= 8 Len=  415
 Calling FoFJK, ICntrl=    100127 FMM=F ISym2X=0 I1Cent= 0 IOpClX= 0 NMat=1 NMatS=1 NMatT=0.
 ***** Axes restored to original set *****
 -------------------------------------------------------------------
 Center     Atomic                   Forces (Hartrees/Bohr)
 Number     Number              X              Y              Z
 -------------------------------------------------------------------
      1        6          -0.000110306    0.000074630    0.000005017
      2        6           0.000111155   -0.000074270    0.000011821
      3        8           0.000057768   -0.000063330    0.000016458
      4        8           0.000074383    0.000047783   -0.000024218
      5        1           0.000002889   -0.000052771    0.000001583
      6        8          -0.000075162   -0.000050833   -0.000011958
      7        8          -0.000057683    0.000066495    0.000008468
      8        1          -0.000003045    0.000052297   -0.000007171
 -------------------------------------------------------------------
 Cartesian Forces:  Max     0.000111155 RMS     0.000055371
 FormGI is forming the generalized inverse of G from B-inverse, IUseBI=4.

 GradGradGradGradGradGradGradGradGradGradGradGradGradGradGradGradGradGrad
 Berny optimization.
 Using GEDIIS/GDIIS optimizer.
 Internal  Forces:  Max     0.000083752 RMS     0.000040039
 Search for a local minimum.
 Step number   3 out of a maximum of   33
 All quantities printed in internal units (Hartrees-Bohrs-Radians)
 Mixed Optimization -- En-DIIS/RFO-DIIS
 Second derivative matrix not updated -- analytic derivatives used.
 DE= -2.43D-05 DEPred=-2.45D-05 R= 9.91D-01
 TightC=F SS=  1.41D+00  RLast= 1.62D-02 DXNew= 6.8166D-01 4.8607D-02
 Trust test= 9.91D-01 RLast= 1.62D-02 DXMaxT set to 4.05D-01
 ITU=  1  1  0
 Use linear search instead of GDIIS.
     Eigenvalues ---    0.00978   0.02693   0.03321   0.05157   0.06949
     Eigenvalues ---    0.15956   0.16412   0.20061   0.23937   0.24164
     Eigenvalues ---    0.26329   0.35905   0.46363   0.46966   0.52441
     Eigenvalues ---    0.53062   0.91420   0.94545
 RFO step:  Lambda=-1.88716637D-07 EMin= 9.77718147D-03
 Quintic linear search produced a step of -0.02351.
 Iteration  1 RMS(Cart)=  0.00087028 RMS(Int)=  0.00000030
 Iteration  2 RMS(Cart)=  0.00000036 RMS(Int)=  0.00000000
 Variable       Old X    -DE/DX   Delta X   Delta X   Delta X     New X
                                 (Linear)    (Quad)   (Total)
    R1        2.90532  -0.00002   0.00002   0.00004   0.00006   2.90537
    R2        2.25965  -0.00008  -0.00007  -0.00003  -0.00010   2.25955
    R3        2.48257  -0.00003  -0.00012   0.00004  -0.00008   2.48249
    R4        2.48257  -0.00003  -0.00012   0.00004  -0.00008   2.48249
    R5        2.25965  -0.00008  -0.00007  -0.00003  -0.00010   2.25955
    R6        1.84285   0.00003  -0.00001   0.00004   0.00003   1.84288
    R7        1.84285   0.00003  -0.00001   0.00004   0.00003   1.84288
    A1        2.11629  -0.00001   0.00000   0.00001   0.00001   2.11629
    A2        1.97197  -0.00004  -0.00000  -0.00012  -0.00012   1.97185
    A3        2.19493   0.00004   0.00000   0.00012   0.00012   2.19504
    A4        1.97197  -0.00004  -0.00000  -0.00012  -0.00012   1.97185
    A5        2.11629  -0.00001   0.00000   0.00001   0.00001   2.11629
    A6        2.19493   0.00004   0.00000   0.00011   0.00012   2.19504
    A7        1.86774   0.00007  -0.00001   0.00039   0.00038   1.86812
    A8        1.86774   0.00007  -0.00001   0.00039   0.00038   1.86812
    D1        0.00157  -0.00002  -0.00015  -0.00144  -0.00160  -0.00003
    D2       -3.14013  -0.00001  -0.00014  -0.00135  -0.00149   3.14156
    D3       -3.13992  -0.00003  -0.00016  -0.00154  -0.00171   3.14156
    D4        0.00157  -0.00002  -0.00015  -0.00144  -0.00160  -0.00003
    D5       -0.00049   0.00000   0.00005   0.00045   0.00051   0.00001
    D6        3.14121  -0.00001   0.00004   0.00035   0.00039  -3.14158
    D7       -0.00049   0.00000   0.00005   0.00045   0.00051   0.00001
    D8        3.14121  -0.00001   0.00004   0.00035   0.00039  -3.14158
         Item               Value     Threshold  Converged?
 Maximum Force            0.000084     0.000450     YES
 RMS     Force            0.000040     0.000300     YES
 Maximum Displacement     0.002081     0.001800     NO 
 RMS     Displacement     0.000870     0.001200     YES
 Predicted change in Energy=-1.061660D-07
 GradGradGradGradGradGradGradGradGradGradGradGradGradGradGradGradGradGrad

                          Input orientation:                          
 ---------------------------------------------------------------------
 Center     Atomic      Atomic             Coordinates (Angstroms)
 Number     Number       Type             X           Y           Z
 ---------------------------------------------------------------------
      1          6           0       -0.366110    1.609124   -0.080987
      2          6           0        1.170448    1.571367   -0.117621
      3          8           0       -0.963186    2.642563   -0.153197
      4          8           0       -0.905801    0.416971    0.034162
      5          1           0       -0.173408   -0.225969    0.069742
      6          8           0        1.710138    2.763517   -0.232809
      7          8           0        1.767524    0.537931   -0.045379
      8          1           0        0.977744    3.406457   -0.268382
 ---------------------------------------------------------------------
                    Distance matrix (angstroms):
                    1          2          3          4          5
     1  C    0.000000
     2  C    1.537458   0.000000
     3  O    1.195705   2.387701   0.000000
     4  O    1.313679   2.380436   2.234201   0.000000
     5  H    1.851328   2.251992   2.983609   0.975211   0.000000
     6  O    2.380436   1.313679   2.677242   3.524299   3.546308
     7  O    2.387701   1.195705   3.449330   2.677242   2.089022
     8  H    2.251992   1.851328   2.089022   3.546308   3.825440
                    6          7          8
     6  O    0.000000
     7  O    2.234201   0.000000
     8  H    0.975211   2.983609   0.000000
 Stoichiometry    C2H2O4
 Framework group  C1[X(C2H2O4)]
 Deg. of freedom    18
 Full point group                 C1      NOp   1
 Largest Abelian subgroup         C1      NOp   1
 Largest concise Abelian subgroup C1      NOp   1
                         Standard orientation:                         
 ---------------------------------------------------------------------
 Center     Atomic      Atomic             Coordinates (Angstroms)
 Number     Number       Type             X           Y           Z
 ---------------------------------------------------------------------
      1          6           0       -0.751564   -0.161542   -0.000002
      2          6           0        0.751564    0.161542   -0.000002
      3          8           0       -1.143295   -1.291257   -0.000018
      4          8           0       -1.507109    0.913123    0.000018
      5          1           0       -0.908646    1.683110    0.000015
      6          8           0        1.507109   -0.913123    0.000018
      7          8           0        1.143295    1.291257   -0.000018
      8          1           0        0.908646   -1.683110    0.000015
 ---------------------------------------------------------------------
 Rotational constants (GHZ):           5.8672143           3.8903001           2.3392458
 Standard basis: def2TZVP (5D, 7F)
 There are   228 symmetry adapted cartesian basis functions of A   symmetry.
 There are   198 symmetry adapted basis functions of A   symmetry.
   198 basis functions,   322 primitive gaussians,   228 cartesian basis functions
    23 alpha electrons       23 beta electrons
       nuclear repulsion energy       235.5590849168 Hartrees.
 NAtoms=    8 NActive=    8 NUniq=    8 SFac= 1.00D+00 NAtFMM=   60 NAOKFM=F Big=F
 Integral buffers will be    131072 words long.
 Raffenetti 2 integral format.
 Two-electron integral symmetry is turned on.
 One-electron integrals computed using PRISM.
   1 Symmetry operations used in ECPInt.
 ECPInt:  NShTT=    2775 NPrTT=    8916 LenC2=    2729 LenP2D=    7185.
 LDataN:  DoStor=T MaxTD1= 6 Len=  172
 NBasis=   198 RedAO= T EigKep=  4.81D-04  NBF=   198
 NBsUse=   198 1.00D-06 EigRej= -1.00D+00 NBFU=   198
 Initial guess from the checkpoint file:  "/jobfs/7276286.gadi-pbs/Gau-27678.chk"
 B after Tr=     0.000000   -0.000000   -0.000000
         Rot=    1.000000   -0.000000    0.000000    0.000009 Ang=   0.00 deg.
 Requested convergence on RMS density matrix=1.00D-08 within 128 cycles.
 Requested convergence on MAX density matrix=1.00D-06.
 Requested convergence on             energy=1.00D-06.
 No special actions if energy rises.
 SCF Done:  E(RM06) =  -378.313549291     A.U. after    7 cycles
            NFock=  7  Conv=0.42D-08     -V/T= 2.0034
 DoSCS=F DFT=T ScalE2(SS,OS)=  1.000000  1.000000
 Range of M.O.s used for correlation:     1   198
 NBasis=   198 NAE=    23 NBE=    23 NFC=     0 NFV=     0
 NROrb=    198 NOA=    23 NOB=    23 NVA=   175 NVB=   175

 **** Warning!!: The largest alpha MO coefficient is  0.15109217D+02

   1 Symmetry operations used in ECPInt.
 ECPInt:  NShTT=    2775 NPrTT=    8916 LenC2=    2729 LenP2D=    7185.
 LDataN:  DoStor=T MaxTD1= 7 Len=  274
 Symmetrizing basis deriv contribution to polar:
 IMax=3 JMax=2 DiffMx= 0.00D+00
 G2DrvN: will do     9 centers at a time, making    1 passes.
 Calling FoFCou, ICntrl=  3107 FMM=F I1Cent=   0 AccDes= 0.00D+00.
 End of G2Drv F.D. properties file   721 does not exist.
 End of G2Drv F.D. properties file   722 does not exist.
 End of G2Drv F.D. properties file   788 does not exist.
          IDoAtm=11111111
          Differentiating once with respect to electric field.
                with respect to dipole field.
          Differentiating once with respect to nuclear coordinates.
 CalDSu exits because no D1Ps are significant.
          There are    27 degrees of freedom in the 1st order CPHF.  IDoFFX=6 NUNeed=     3.
     24 vectors produced by pass  0 Test12= 1.49D-14 3.70D-09 XBig12= 3.87D+01 4.27D+00.
 AX will form    24 AO Fock derivatives at one time.
     24 vectors produced by pass  1 Test12= 1.49D-14 3.70D-09 XBig12= 1.06D+01 6.56D-01.
     24 vectors produced by pass  2 Test12= 1.49D-14 3.70D-09 XBig12= 2.68D-01 1.18D-01.
     24 vectors produced by pass  3 Test12= 1.49D-14 3.70D-09 XBig12= 1.70D-03 1.01D-02.
     24 vectors produced by pass  4 Test12= 1.49D-14 3.70D-09 XBig12= 1.12D-05 6.67D-04.
     24 vectors produced by pass  5 Test12= 1.49D-14 3.70D-09 XBig12= 3.84D-08 4.57D-05.
     19 vectors produced by pass  6 Test12= 1.49D-14 3.70D-09 XBig12= 1.10D-10 1.40D-06.
      5 vectors produced by pass  7 Test12= 1.49D-14 3.70D-09 XBig12= 3.62D-13 9.74D-08.
      1 vectors produced by pass  8 Test12= 1.49D-14 3.70D-09 XBig12= 1.26D-15 6.65D-09.
 InvSVY:  IOpt=1 It=  1 EMax= 2.66D-15
 Solved reduced A of dimension   169 with    27 vectors.
 Isotropic polarizability for W=    0.000000       34.91 Bohr**3.
 End of Minotr F.D. properties file   721 does not exist.
 End of Minotr F.D. properties file   722 does not exist.
 End of Minotr F.D. properties file   788 does not exist.
   1 Symmetry operations used in ECPInt.
 ECPInt:  NShTT=    2775 NPrTT=    8916 LenC2=    2729 LenP2D=    7185.
 LDataN:  DoStor=T MaxTD1= 8 Len=  415
 Calling FoFJK, ICntrl=    100127 FMM=F ISym2X=0 I1Cent= 0 IOpClX= 0 NMat=1 NMatS=1 NMatT=0.
 ***** Axes restored to original set *****
 -------------------------------------------------------------------
 Center     Atomic                   Forces (Hartrees/Bohr)
 Number     Number              X              Y              Z
 -------------------------------------------------------------------
      1        6          -0.000000211   -0.000002495    0.000000214
      2        6           0.000000230    0.000002437   -0.000000216
      3        8          -0.000003168   -0.000004335    0.000000105
      4        8           0.000003745   -0.000003738    0.000000679
      5        1           0.000005639   -0.000001759   -0.000000109
      6        8          -0.000003711    0.000003831    0.000000230
      7        8           0.000003127    0.000004307   -0.000000791
      8        1          -0.000005651    0.000001752   -0.000000114
 -------------------------------------------------------------------
 Cartesian Forces:  Max     0.000005651 RMS     0.000002865
 FormGI is forming the generalized inverse of G from B-inverse, IUseBI=4.

 GradGradGradGradGradGradGradGradGradGradGradGradGradGradGradGradGradGrad
 Berny optimization.
 Using GEDIIS/GDIIS optimizer.
 Internal  Forces:  Max     0.000000396 RMS     0.000000178
 Search for a local minimum.
 Step number   4 out of a maximum of   33
 All quantities printed in internal units (Hartrees-Bohrs-Radians)
 Mixed Optimization -- En-DIIS/RFO-DIIS
 Swapping is turned off.
 Second derivative matrix not updated -- analytic derivatives used.
 DE= -1.08D-07 DEPred=-1.06D-07 R= 1.02D+00
 Trust test= 1.02D+00 RLast= 3.38D-03 DXMaxT set to 4.05D-01
 ITU=  0  1  1  0
     Eigenvalues ---    0.00978   0.02692   0.03321   0.05157   0.06950
     Eigenvalues ---    0.15945   0.16400   0.20059   0.23940   0.24165
     Eigenvalues ---    0.26333   0.35910   0.46365   0.46967   0.52443
     Eigenvalues ---    0.53063   0.91449   0.94575
 En-DIIS/RFO-DIIS/Sim-DIIS IScMMF=       -3 using points:     4    3
 RFO step:  Lambda=-9.93720330D-12.
 DidBck=F Rises=F RFO-DIIS coefs:    0.98007    0.01993
 Iteration  1 RMS(Cart)=  0.00001577 RMS(Int)=  0.00000000
 Iteration  2 RMS(Cart)=  0.00000000 RMS(Int)=  0.00000000
 Variable       Old X    -DE/DX   Delta X   Delta X   Delta X     New X
                                 (Linear)    (Quad)   (Total)
    R1        2.90537  -0.00000  -0.00000   0.00000   0.00000   2.90537
    R2        2.25955  -0.00000   0.00000  -0.00000  -0.00000   2.25955
    R3        2.48249  -0.00000   0.00000  -0.00000  -0.00000   2.48249
    R4        2.48249  -0.00000   0.00000  -0.00000  -0.00000   2.48249
    R5        2.25955  -0.00000   0.00000  -0.00000  -0.00000   2.25955
    R6        1.84288  -0.00000  -0.00000   0.00000   0.00000   1.84288
    R7        1.84288   0.00000  -0.00000   0.00000   0.00000   1.84288
    A1        2.11629   0.00000  -0.00000   0.00000  -0.00000   2.11629
    A2        1.97185  -0.00000   0.00000  -0.00000  -0.00000   1.97185
    A3        2.19504   0.00000  -0.00000   0.00000   0.00000   2.19504
    A4        1.97185  -0.00000   0.00000  -0.00000  -0.00000   1.97185
    A5        2.11629  -0.00000  -0.00000   0.00000  -0.00000   2.11629
    A6        2.19504   0.00000  -0.00000   0.00000   0.00000   2.19504
    A7        1.86812  -0.00000  -0.00001   0.00001  -0.00000   1.86812
    A8        1.86812  -0.00000  -0.00001   0.00001  -0.00000   1.86812
    D1       -0.00003   0.00000   0.00003  -0.00000   0.00003  -0.00000
    D2        3.14156   0.00000   0.00003   0.00000   0.00003   3.14159
    D3        3.14156   0.00000   0.00003  -0.00000   0.00003   3.14159
    D4       -0.00003   0.00000   0.00003  -0.00000   0.00003  -0.00000
    D5        0.00001  -0.00000  -0.00001  -0.00000  -0.00001  -0.00000
    D6       -3.14158  -0.00000  -0.00001  -0.00001  -0.00001  -3.14159
    D7        0.00001  -0.00000  -0.00001  -0.00000  -0.00001  -0.00000
    D8       -3.14158  -0.00000  -0.00001  -0.00001  -0.00001  -3.14159
         Item               Value     Threshold  Converged?
 Maximum Force            0.000000     0.000450     YES
 RMS     Force            0.000000     0.000300     YES
 Maximum Displacement     0.000039     0.001800     YES
 RMS     Displacement     0.000016     0.001200     YES
 Predicted change in Energy=-2.398469D-11
 Optimization completed.
    -- Stationary point found.
                           ----------------------------
                           !   Optimized Parameters   !
                           ! (Angstroms and Degrees)  !
 --------------------------                            --------------------------
 ! Name  Definition              Value          Derivative Info.                !
 --------------------------------------------------------------------------------
 ! R1    R(1,2)                  1.5375         -DE/DX =    0.0                 !
 ! R2    R(1,3)                  1.1957         -DE/DX =    0.0                 !
 ! R3    R(1,4)                  1.3137         -DE/DX =    0.0                 !
 ! R4    R(2,6)                  1.3137         -DE/DX =    0.0                 !
 ! R5    R(2,7)                  1.1957         -DE/DX =    0.0                 !
 ! R6    R(4,5)                  0.9752         -DE/DX =    0.0                 !
 ! R7    R(6,8)                  0.9752         -DE/DX =    0.0                 !
 ! A1    A(2,1,3)              121.2547         -DE/DX =    0.0                 !
 ! A2    A(2,1,4)              112.9785         -DE/DX =    0.0                 !
 ! A3    A(3,1,4)              125.7667         -DE/DX =    0.0                 !
 ! A4    A(1,2,6)              112.9785         -DE/DX =    0.0                 !
 ! A5    A(1,2,7)              121.2547         -DE/DX =    0.0                 !
 ! A6    A(6,2,7)              125.7667         -DE/DX =    0.0                 !
 ! A7    A(1,4,5)              107.0351         -DE/DX =    0.0                 !
 ! A8    A(2,6,8)              107.0351         -DE/DX =    0.0                 !
 ! D1    D(3,1,2,6)             -0.0018         -DE/DX =    0.0                 !
 ! D2    D(3,1,2,7)            179.9982         -DE/DX =    0.0                 !
 ! D3    D(4,1,2,6)            179.9981         -DE/DX =    0.0                 !
 ! D4    D(4,1,2,7)             -0.0018         -DE/DX =    0.0                 !
 ! D5    D(2,1,4,5)              0.0008         -DE/DX =    0.0                 !
 ! D6    D(3,1,4,5)           -179.9992         -DE/DX =    0.0                 !
 ! D7    D(1,2,6,8)              0.0008         -DE/DX =    0.0                 !
 ! D8    D(7,2,6,8)           -179.9992         -DE/DX =    0.0                 !
 --------------------------------------------------------------------------------
 GradGradGradGradGradGradGradGradGradGradGradGradGradGradGradGradGradGrad

                          Input orientation:                          
 ---------------------------------------------------------------------
 Center     Atomic      Atomic             Coordinates (Angstroms)
 Number     Number       Type             X           Y           Z
 ---------------------------------------------------------------------
      1          6           0       -0.366110    1.609124   -0.080987
      2          6           0        1.170448    1.571367   -0.117621
      3          8           0       -0.963186    2.642563   -0.153197
      4          8           0       -0.905801    0.416971    0.034162
      5          1           0       -0.173408   -0.225969    0.069742
      6          8           0        1.710138    2.763517   -0.232809
      7          8           0        1.767524    0.537931   -0.045379
      8          1           0        0.977744    3.406457   -0.268382
 ---------------------------------------------------------------------
                    Distance matrix (angstroms):
                    1          2          3          4          5
     1  C    0.000000
     2  C    1.537458   0.000000
     3  O    1.195705   2.387701   0.000000
     4  O    1.313679   2.380436   2.234201   0.000000
     5  H    1.851328   2.251992   2.983609   0.975211   0.000000
     6  O    2.380436   1.313679   2.677242   3.524299   3.546308
     7  O    2.387701   1.195705   3.449330   2.677242   2.089022
     8  H    2.251992   1.851328   2.089022   3.546308   3.825440
                    6          7          8
     6  O    0.000000
     7  O    2.234201   0.000000
     8  H    0.975211   2.983609   0.000000
 Stoichiometry    C2H2O4
 Framework group  C1[X(C2H2O4)]
 Deg. of freedom    18
 Full point group                 C1      NOp   1
 Largest Abelian subgroup         C1      NOp   1
 Largest concise Abelian subgroup C1      NOp   1
                         Standard orientation:                         
 ---------------------------------------------------------------------
 Center     Atomic      Atomic             Coordinates (Angstroms)
 Number     Number       Type             X           Y           Z
 ---------------------------------------------------------------------
      1          6           0       -0.751564   -0.161542   -0.000002
      2          6           0        0.751564    0.161542   -0.000002
      3          8           0       -1.143295   -1.291257   -0.000018
      4          8           0       -1.507109    0.913123    0.000018
      5          1           0       -0.908646    1.683110    0.000015
      6          8           0        1.507109   -0.913123    0.000018
      7          8           0        1.143295    1.291257   -0.000018
      8          1           0        0.908646   -1.683110    0.000015
 ---------------------------------------------------------------------
 Rotational constants (GHZ):           5.8672143           3.8903001           2.3392458

 **********************************************************************

            Population analysis using the SCF Density.

 **********************************************************************

 Orbital symmetries:
       Occupied  (A) (A) (A) (A) (A) (A) (A) (A) (A) (A) (A) (A)
                 (A) (A) (A) (A) (A) (A) (A) (A) (A) (A) (A)
       Virtual   (A) (A) (A) (A) (A) (A) (A) (A) (A) (A) (A) (A)
                 (A) (A) (A) (A) (A) (A) (A) (A) (A) (A) (A) (A)
                 (A) (A) (A) (A) (A) (A) (A) (A) (A) (A) (A) (A)
                 (A) (A) (A) (A) (A) (A) (A) (A) (A) (A) (A) (A)
                 (A) (A) (A) (A) (A) (A) (A) (A) (A) (A) (A) (A)
                 (A) (A) (A) (A) (A) (A) (A) (A) (A) (A) (A) (A)
                 (A) (A) (A) (A) (A) (A) (A) (A) (A) (A) (A) (A)
                 (A) (A) (A) (A) (A) (A) (A) (A) (A) (A) (A) (A)
                 (A) (A) (A) (A) (A) (A) (A) (A) (A) (A) (A) (A)
                 (A) (A) (A) (A) (A) (A) (A) (A) (A) (A) (A) (A)
                 (A) (A) (A) (A) (A) (A) (A) (A) (A) (A) (A) (A)
                 (A) (A) (A) (A) (A) (A) (A) (A) (A) (A) (A) (A)
                 (A) (A) (A) (A) (A) (A) (A) (A) (A) (A) (A) (A)
                 (A) (A) (A) (A) (A) (A) (A) (A) (A) (A) (A) (A)
                 (A) (A) (A) (A) (A) (A) (A)
 The electronic state is 1-A.
 Alpha  occ. eigenvalues --  -19.29319 -19.29318 -19.24168 -19.24167 -10.41146
 Alpha  occ. eigenvalues --  -10.41126  -1.19030  -1.16013  -1.10814  -1.08576
 Alpha  occ. eigenvalues --   -0.72344  -0.66189  -0.66097  -0.53704  -0.52579
 Alpha  occ. eigenvalues --   -0.50193  -0.49549  -0.48153  -0.42352  -0.39391
 Alpha  occ. eigenvalues --   -0.38948  -0.37924  -0.31849
 Alpha virt. eigenvalues --   -0.07996   0.02074   0.05202   0.06772   0.12721
 Alpha virt. eigenvalues --    0.13160   0.18350   0.20814   0.22766   0.23587
 Alpha virt. eigenvalues --    0.25551   0.25677   0.29820   0.30728   0.31641
 Alpha virt. eigenvalues --    0.33805   0.33806   0.40244   0.40512   0.42645
 Alpha virt. eigenvalues --    0.47706   0.48306   0.48427   0.51060   0.52626
 Alpha virt. eigenvalues --    0.54759   0.61643   0.61971   0.62043   0.64349
 Alpha virt. eigenvalues --    0.66582   0.67283   0.67371   0.69980   0.72456
 Alpha virt. eigenvalues --    0.82054   0.83497   0.88194   0.92672   0.95008
 Alpha virt. eigenvalues --    0.98988   0.99442   1.09137   1.22940   1.27741
 Alpha virt. eigenvalues --    1.28333   1.28408   1.31179   1.39213   1.40345
 Alpha virt. eigenvalues --    1.44743   1.47549   1.50612   1.52370   1.67019
 Alpha virt. eigenvalues --    1.68441   1.68968   1.72323   1.79829   1.83036
 Alpha virt. eigenvalues --    1.84623   1.85001   1.86746   1.89458   1.90230
 Alpha virt. eigenvalues --    1.95308   2.03713   2.07481   2.09817   2.13211
 Alpha virt. eigenvalues --    2.18754   2.20900   2.21864   2.25068   2.27272
 Alpha virt. eigenvalues --    2.28962   2.37672   2.40229   2.49212   2.52729
 Alpha virt. eigenvalues --    2.53928   2.58838   2.60120   2.66103   2.74179
 Alpha virt. eigenvalues --    2.76481   2.81590   2.87728   2.88608   2.91873
 Alpha virt. eigenvalues --    2.95159   2.95192   2.95921   3.01033   3.06131
 Alpha virt. eigenvalues --    3.10843   3.14405   3.16773   3.24045   3.25602
 Alpha virt. eigenvalues --    3.28810   3.30410   3.32781   3.35958   3.38866
 Alpha virt. eigenvalues --    3.41510   3.52743   3.53324   3.57094   3.59166
 Alpha virt. eigenvalues --    3.76204   3.77808   3.94958   3.96571   4.01598
 Alpha virt. eigenvalues --    4.25201   4.31286   4.32978   4.44983   4.53009
 Alpha virt. eigenvalues --    4.76371   5.12483   5.13165   5.16956   5.18968
 Alpha virt. eigenvalues --    5.19060   5.23006   5.28896   5.33116   5.33809
 Alpha virt. eigenvalues --    5.36803   5.47629   5.51918   5.59522   5.59642
 Alpha virt. eigenvalues --    5.65426   5.70136   5.82999   5.89380   5.94591
 Alpha virt. eigenvalues --    5.99931   6.10941   6.14387   6.17811   6.24777
 Alpha virt. eigenvalues --    6.34343   6.35133   6.37282   6.40055   6.42429
 Alpha virt. eigenvalues --    6.48130   6.50648   6.52382   6.55893   6.69682
 Alpha virt. eigenvalues --    6.72961   6.77065   6.78947   6.79777   6.86475
 Alpha virt. eigenvalues --    6.90354   6.96658   6.98924   7.08759   7.12473
 Alpha virt. eigenvalues --    7.13905   7.14582   7.29632   7.51201  23.16939
 Alpha virt. eigenvalues --   23.41389  43.65396  43.70256  43.81822  44.03523
          Condensed to atoms (all electrons):
               1          2          3          4          5          6
     1  C    4.597829   0.411712   0.451330   0.300247  -0.029493  -0.065898
     2  C    0.411712   4.597829  -0.060611  -0.065898  -0.016469   0.300247
     3  O    0.451330  -0.060611   8.034529  -0.061395   0.004038  -0.012260
     4  O    0.300247  -0.065898  -0.061395   7.925728   0.282985   0.004384
     5  H   -0.029493  -0.016469   0.004038   0.282985   0.359948   0.002124
     6  O   -0.065898   0.300247  -0.012260   0.004384   0.002124   7.925728
     7  O   -0.060611   0.451330   0.003421  -0.012260   0.036753  -0.061395
     8  H   -0.016469  -0.029493   0.036753   0.002124  -0.000255   0.282985
               7          8
     1  C   -0.060611  -0.016469
     2  C    0.451330  -0.029493
     3  O    0.003421   0.036753
     4  O   -0.012260   0.002124
     5  H    0.036753  -0.000255
     6  O   -0.061395   0.282985
     7  O    8.034529   0.004038
     8  H    0.004038   0.359948
 Mulliken charges:
               1
     1  C    0.411353
     2  C    0.411353
     3  O   -0.395806
     4  O   -0.375915
     5  H    0.360368
     6  O   -0.375915
     7  O   -0.395806
     8  H    0.360368
 Sum of Mulliken charges =  -0.00000
 Mulliken charges with hydrogens summed into heavy atoms:
               1
     1  C    0.411353
     2  C    0.411353
     3  O   -0.395806
     4  O   -0.015547
     6  O   -0.015547
     7  O   -0.395806
 APT charges:
               1
     1  C    1.040218
     2  C    1.040218
     3  O   -0.718484
     4  O   -0.699015
     5  H    0.377282
     6  O   -0.699015
     7  O   -0.718484
     8  H    0.377282
 Sum of APT charges =  -0.00000
 APT charges with hydrogens summed into heavy atoms:
               1
     1  C    1.040218
     2  C    1.040218
     3  O   -0.718484
     4  O   -0.321734
     6  O   -0.321734
     7  O   -0.718484
 Electronic spatial extent (au):  <R**2>=            475.7856
 Charge=             -0.0000 electrons
 Dipole moment (field-independent basis, Debye):
    X=             -0.0000    Y=             -0.0000    Z=              0.0000  Tot=              0.0000
 Quadrupole moment (field-independent basis, Debye-Ang):
   XX=            -40.6168   YY=            -31.5633   ZZ=            -31.3336
   XY=             -5.3131   XZ=             -0.0000   YZ=              0.0000
 Traceless Quadrupole moment (field-independent basis, Debye-Ang):
   XX=             -6.1122   YY=              2.9413   ZZ=              3.1710
   XY=             -5.3131   XZ=             -0.0000   YZ=              0.0000
 Octapole moment (field-independent basis, Debye-Ang**2):
  XXX=              0.0000  YYY=             -0.0000  ZZZ=              0.0000  XYY=             -0.0000
  XXY=             -0.0000  XXZ=             -0.0000  XZZ=              0.0000  YZZ=             -0.0000
  YYZ=              0.0003  XYZ=              0.0001
 Hexadecapole moment (field-independent basis, Debye-Ang**3):
 XXXX=           -325.2659 YYYY=           -186.3551 ZZZZ=            -25.0442 XXXY=             -1.3883
 XXXZ=             -0.0000 YYYX=            -27.8043 YYYZ=              0.0000 ZZZX=             -0.0000
 ZZZY=              0.0000 XXYY=            -92.1846 XXZZ=            -53.7641 YYZZ=            -38.8887
 XXYZ=              0.0000 YYXZ=             -0.0000 ZZXY=             -0.3190
 N-N= 2.355590849168D+02 E-N=-1.362189621426D+03  KE= 3.770417713592D+02
  Exact polarizability:      36.574       0.643      46.430       0.000       0.000      21.710
 Approx polarizability:      45.584       2.772      73.721       0.000       0.000      29.998
 Rotating derivatives to standard orientation.
 Full mass-weighted force constant matrix:
 Low frequencies ---  -14.1462   -7.9970   -2.8485   -0.0010    0.0011    0.0014
 Low frequencies ---  128.1730  277.7224  417.9957
 Diagonal vibrational polarizability:
       21.9989810      15.9091303      28.2194358
 Harmonic frequencies (cm**-1), IR intensities (KM/Mole), Raman scattering
 activities (A**4/AMU), depolarization ratios for plane and unpolarized
 incident light, reduced masses (AMU), force constants (mDyne/A),
 and normal coordinates:
                      1                      2                      3
                      A                      A                      A
 Frequencies --    128.1730               277.7224               417.9949
 Red. masses --     10.7471                 6.3283                 6.5737
 Frc consts  --      0.1040                 0.2876                 0.6767
 IR Inten    --      6.6312                55.2587                 0.0000
  Atom  AN      X      Y      Z        X      Y      Z        X      Y      Z
     1   6     0.00   0.00  -0.04     0.03   0.11   0.00     0.10   0.00  -0.00
     2   6    -0.00  -0.00  -0.04     0.03   0.11  -0.00    -0.10  -0.00  -0.00
     3   8    -0.00   0.00  -0.40     0.29   0.02   0.00     0.28  -0.07   0.00
     4   8     0.00  -0.00   0.40    -0.27  -0.10   0.00     0.29   0.09   0.00
     5   1    -0.00  -0.00   0.42    -0.56   0.10   0.00     0.55  -0.09  -0.00
     6   8    -0.00   0.00   0.40    -0.27  -0.10  -0.00    -0.29  -0.09   0.00
     7   8     0.00  -0.00  -0.40     0.29   0.02  -0.00    -0.28   0.07   0.00
     8   1     0.00   0.00   0.42    -0.56   0.10  -0.00    -0.55   0.09  -0.00
                      4                      5                      6
                      A                      A                      A
 Frequencies --    470.6120               573.6666               682.0546
 Red. masses --     12.5937                 8.1254                 7.8716
 Frc consts  --      1.6433                 1.5755                 2.1575
 IR Inten    --     59.4327                 0.0000                24.2201
  Atom  AN      X      Y      Z        X      Y      Z        X      Y      Z
     1   6     0.00   0.00   0.61     0.04   0.24  -0.00    -0.29  -0.04  -0.00
     2   6    -0.00  -0.00   0.61    -0.04  -0.24  -0.00    -0.29  -0.04   0.00
     3   8     0.00   0.00  -0.25     0.28   0.20   0.00     0.20  -0.23  -0.00
     4   8    -0.00   0.00  -0.22    -0.23   0.16   0.00    -0.01   0.27   0.00
     5   1    -0.00   0.00   0.11    -0.41   0.29  -0.00     0.49  -0.08  -0.00
     6   8     0.00  -0.00  -0.22     0.23  -0.16   0.00    -0.01   0.27  -0.00
     7   8    -0.00  -0.00  -0.25    -0.28  -0.20   0.00     0.20  -0.23   0.00
     8   1     0.00  -0.00   0.11     0.41  -0.29  -0.00     0.49  -0.08   0.00
                      7                      8                      9
                      A                      A                      A
 Frequencies --    709.0594               712.5403               843.0850
 Red. masses --      1.1089                 1.0647                 9.5390
 Frc consts  --      0.3285                 0.3185                 3.9948
 IR Inten    --      0.0000               191.2153                 0.0000
  Atom  AN      X      Y      Z        X      Y      Z        X      Y      Z
     1   6     0.00   0.00  -0.02     0.00   0.00  -0.02    -0.33  -0.08  -0.00
[...]
 036,-0.00313110,0.00017213,0.00004990,0.00296685,-0.00037253,-0.000034
 05,0.24858005,0.08924883,0.00047410,0.00055770,0.00182835,0.00280194,0
 .01544636,0.02327597,0.00049868,-0.00011376,-0.00001896,0.00024797,0.0
 0005057,-0.00020321,-0.00017973,0.00002845,0.00013093,-0.01379347,-0.0
 1182751,0.02744332,-0.00423402,-0.00523658,0.00056141,-0.00832661,-0.0
 1616728,0.00165374,0.00159579,0.00101798,-0.00013128,-0.02041713,0.000
 36674,0.00049696,0.05303991,0.01384901,-0.00254666,-0.00140485,-0.0025
 8157,0.00028165,-0.02102153,0.00141291,-0.00171277,0.00008575,-0.00612
 501,0.01922674,-0.00137138,0.00101941,0.00115905,-0.00011230,-0.004784
 50,0.00270585,-0.00009996,0.00843549,-0.00162251,-0.00007108,-0.009712
 55,-0.00737295,0.00095280,0.00727756,-0.01577425,-0.00001934,0.0002605
 2,-0.00015225,0.00081936,-0.00109888,0.00173278,-0.00012017,-0.0001234
 8,0.00009446,0.00093341,-0.00024051,-0.00001980,-0.00208752,-0.0002106
 0,0.00018802,0.00087308,0.00076999,0.00080673,-0.00013361,0.00109490,-
 0.00119226,0.02292701,0.01079055,-0.00149924,-0.01018010,0.01822849,-0
 .00123105,0.05303996,0.00843619,-0.00208867,-0.00268861,0.00296726,-0.
 00017780,0.00169417,-0.00049530,0.00000142,0.25304242,-0.20773256,0.00
 966887,0.00076844,0.00247669,-0.00026522,-0.31860330,-0.00174547,0.002
 19028,-0.00009990,-0.01342521,-0.00021383,0.00054436,0.01384886,-0.001
 62295,-0.00021240,0.00055978,-0.00037268,0.00002761,-0.00049540,-0.000
 01739,0.00002453,-0.16554537,0.05717340,-0.00509461,0.00147414,0.00339
 083,-0.00045195,0.16532867,-0.06052765,-0.00043219,-0.00042461,0.00051
 422,0.00145696,-0.00028002,0.00206484,-0.00254834,-0.00007124,0.000188
 05,0.00002514,-0.00003471,0.00013097,0.00000100,0.00002437,0.00011730,
 0.00608794,-0.00399742,-0.05326312,-0.00018220,-0.00047874,-0.00145768
 ,-0.00440831,0.00526236,0.05170542,0.16960024,0.05296507,0.12529934,-0
 .01033146,-0.01680855,-0.05474061,-0.20948761,0.03378667,0.00296706,0.
 16960290,0.03379114,0.02301988,-0.00145082,0.05296437,0.12529403,0.003
 00087,-0.00145770,0.01625286,-0.01037923,-0.01678357,-0.05473085,0.004
 97813,-0.02071061,0.00169944,-0.00627612,-0.00643921,0.00068661,-0.022
 78822,-0.01945200,0.03641239,-0.00223981,-0.00151781,0.00118866,-0.000
 08914,0.01845859,-0.03554970,0.00157466,-0.00221945,0.00375940,0.00028
 530,0.00003626,-0.00047479,-0.00096435,0.00243050,-0.00099799,0.034506
 17,-0.07162156,0.00607733,-0.00208101,-0.00217928,0.00023531,-0.003874
 16,-0.00609086,0.00059345,-0.15837619,-0.04930992,-0.17834236,0.019341
 41,-0.00288135,-0.00345799,0.00039268,-0.00398398,-0.00519478,0.000428
 78,0.17595153,0.14565457,0.00419311,0.01992074,0.03290439,0.00030576,0
 .00036210,0.00023857,0.00040074,0.00048541,-0.00139625,-0.01090506,-0.
 01712228,-0.00087042,-0.00342542,0.00930762,-0.00068135,0.01218348,0.0
 0488762,-0.00069316,0.00043630,0.00158566,-0.00016724,0.14897248,-0.12
 041593,0.00558176,-0.19890481,-0.01135882,-0.00379699,0.00067377,-0.00
 223377,-0.00032003,0.00020329,0.00153674,0.00296667,-0.00035036,-0.092
 66094,0.03847644,-0.00344903,0.09600558,-0.03632404,0.00107108,0.00014
 145,0.00065194,-0.00009196,0.00001833,0.00140708,-0.00016099,-0.000350
 82,-0.00063913,0.00322683,-0.00273261,-0.03031344,-0.00225466,0.003049
 19,0.02868676,-0.00208064,-0.00217586,0.00025659,0.03450472,-0.0716197
 5,0.00608939,-0.01539371,-0.00151394,0.00051723,-0.00296087,-0.0022156
 9,0.00025507,-0.00079240,0.00032923,-0.00000402,-0.15837226,-0.0028824
 0,-0.00345690,0.00039072,-0.04930839,-0.17833638,0.01937600,0.00111298
 ,0.00222270,-0.00025656,-0.00221492,0.00092434,-0.00004017,0.00174210,
 -0.00028373,-0.00001107,0.17595132,0.14564657,0.00030569,0.00038478,0.
 00023725,0.00418653,0.01995361,0.03289270,0.00029345,-0.00019543,-0.00
 045175,0.00026294,-0.00003963,-0.00022592,-0.00012534,0.00002570,0.000
 11563,-0.01088292,-0.01716519,-0.00085571,-0.00627507,-0.00643782,0.00
 070761,0.00497863,-0.02071272,0.00174523,0.00252888,0.00144703,-0.0001
 9265,-0.01539388,0.00111281,0.00029200,0.04038872,0.00857713,-0.001771
 88,-0.00387478,-0.00398217,0.00040650,-0.02278884,-0.00151930,0.001184
 19,-0.00011221,-0.01944901,0.03640806,-0.00231876,0.00144845,-0.001420
 80,0.00009292,-0.00151320,0.00222364,-0.00018162,0.00708261,-0.0006247
 1,-0.00012242,-0.00609450,-0.00519175,0.00048372,0.01845851,-0.0355463
 9,0.00027382,0.00001750,-0.00047173,0.00165594,-0.00227373,0.00376118,
 -0.00018157,0.00008184,0.00004852,0.00051402,-0.00025668,-0.00045260,-
 0.00164520,-0.00016035,0.00015195,0.00057187,0.00043095,-0.00139690,-0
 .00102936,0.00250774,-0.00100048,0.01218421,0.00488648,-0.00069522,-0.
 00342498,0.00930783,-0.00068501,0.04038892,0.00708333,-0.00164640,-0.0
 0079255,0.00174253,-0.00012337,0.00114164,-0.00019516,-0.00001440,0.14
 896992,-0.12041854,0.00555315,0.00043635,0.00158645,-0.00015952,-0.198
 90351,-0.00223376,-0.00031955,0.00020550,-0.01136071,-0.00379622,0.000
 67720,0.00857703,-0.00062514,-0.00016211,0.00032923,-0.00028388,0.0000
 2484,-0.00019526,-0.00009361,0.00000795,-0.09266081,0.03847514,-0.0034
 4755,0.00153721,0.00296775,-0.00034728,0.09600708,-0.03632449,-0.00008
 776,0.00002121,0.00140650,0.00107060,0.00013782,0.00065325,-0.00177332
 ,-0.00012255,0.00015198,-0.00000483,-0.00001166,0.00011567,-0.00001481
 ,0.00000779,-0.00006080,0.00319679,-0.00272468,-0.03031530,-0.00015744
 ,-0.00034936,-0.00063994,-0.00222924,0.00304144,0.02868864,0.17529690,
 -0.31010549,0.53135197,0.01816783,-0.04891852,-0.13606066,-0.08388894,
 -0.02797058,0.00481438,0.17530145,-0.02796604,0.00559639,0.00117969,-0
 .31010885,0.53134922,0.00484870,0.00117286,0.01068706,0.01813301,-0.04
 890943,-0.13605002,-0.08891471,0.36063802,-0.02530760,0.00636492,0.002
 25095,-0.00037581,0.08589032,0.35821360,-0.53148470,0.04570446,-0.0013
 9446,-0.00216062,0.00020245,-0.35599232,0.53155187,-0.02511989,0.04562
 950,0.11292848,-0.00004983,0.00010535,-0.00035013,0.02506831,-0.045548
 12,-0.11035516,-0.01281866,-0.03427846,0.00357332,0.00219521,0.0026469
 0,-0.00031959,0.00101402,-0.00116996,0.00003143,0.00312447,-0.02176479
 ,-0.00756496,0.00229574,0.00314568,0.00427706,-0.00053265,-0.00083985,
 -0.00069070,-0.00009328,0.02826435,0.01075546,0.00252054,0.00262085,0.
 01271760,-0.00035075,-0.00053178,-0.00099341,-0.00001058,-0.00008255,-
 0.00202461,-0.00279021,-0.00260613,-0.01123809,0.00303652,0.00495571,-
 0.00046950,-0.00127342,0.00185921,-0.00012406,-0.00053766,-0.00013392,
 0.00002791,0.00764037,-0.00147477,-0.00001612,-0.00987790,-0.00080664,
 -0.00026875,0.00013350,0.00068072,0.00025649,-0.00004159,-0.00033189,-
 0.00048210,0.00006952,0.00559394,-0.00461066,0.00038634,-0.00386312,0.
 00490918,0.00001816,-0.00001251,0.00107649,-0.00002731,-0.00007251,-0.
 00000658,0.00004687,0.00006516,0.00024856,-0.00061537,0.00056663,0.001
 62324,0.00049364,-0.00056936,-0.00298495,0.00219554,0.00265035,-0.0002
 9813,-0.01282039,-0.03427727,0.00358381,-0.00121757,0.00085648,-0.0000
 5145,-0.00012281,-0.00162654,0.00015135,0.00018528,-0.00028827,0.00001
 649,0.00312861,0.00314462,0.00427815,-0.00053428,-0.02176382,-0.007560
 09,0.00232326,-0.00505400,0.00221985,-0.00009595,-0.00162578,-0.004228
 08,0.00044680,-0.00065036,-0.00015876,0.00001886,0.02826466,0.01074883
 ,-0.00035125,-0.00050941,-0.00099474,0.00251257,0.00264703,0.01270725,
 0.00044934,-0.00025634,-0.00044577,0.00015927,0.00044758,0.00050236,0.
 00004584,0.00000962,-0.00014049,-0.00276712,-0.00264096,-0.01122488,0.
 00636601,0.00225237,-0.00035419,-0.08891579,0.36063914,-0.02527272,-0.
 00338043,0.00016326,0.00006317,-0.00121773,-0.00505414,0.00044804,0.00
 078084,-0.00083558,0.00005590,0.00101340,-0.00083804,-0.00000496,0.085
 89130,-0.00139599,-0.00216504,0.00017898,0.35821987,-0.53149042,0.0456
 4848,0.00016469,0.00081725,-0.00008429,0.00085728,0.00222078,-0.000242
 32,-0.00054347,0.00022957,0.00001053,-0.00117364,-0.00068772,-0.000084
 64,-0.35599561,0.53155660,-0.00006115,0.00008697,-0.00034708,-0.025049
 35,0.04559786,0.11292799,0.00007431,-0.00009557,-0.00018649,-0.0000544
 9,-0.00009620,-0.00044665,0.00003107,0.00001894,0.00018514,0.00000952,
 -0.00009118,-0.00202522,0.02501423,-0.04549353,-0.11035541,-0.00127267
 ,0.00185807,-0.00012611,0.00303696,0.00495596,-0.00047334,0.00078111,-
 0.00054268,0.00003034,0.00018512,-0.00064994,0.00004773,0.00004597,-0.
 00014918,0.00001163,0.00763793,-0.00147728,-0.00004367,-0.00053760,-0.
 00013312,0.00003585,-0.00987682,0.00068073,0.00025694,-0.00003957,-0.0
 0080856,-0.00026803,0.00013663,-0.00083561,0.00022916,0.00001727,-0.00
 028826,-0.00015890,0.00000878,-0.00014928,0.00012503,-0.00000680,0.005
 59422,-0.00461218,0.00038713,-0.00033141,-0.00048101,0.00007270,-0.003
 86183,0.00490900,-0.00002293,-0.00006974,-0.00000713,0.00001727,-0.000
 01621,0.00107785,0.00005516,0.00001052,0.00018512,0.00001565,0.0000183
 1,-0.00014045,0.00001123,-0.00000697,-0.00000142,-0.00064448,0.0005734
 5,0.00162151,0.00005053,0.00006679,0.00024772,0.00051757,-0.00057615,-
 0.00298319,0.11736117,-0.32178604,0.54101405,0.02097370,-0.04841545,-0
 .12415168,0.01100696,0.00555059,-0.00075903,0.11736339,0.00555513,-0.0
 0308196,0.00016887,-0.32178299,0.54100047,-0.00072512,0.00016169,0.000
 56709,0.02093706,-0.04840488,-0.12413873,-0.10440646,0.35403832,-0.024
 51154,-0.01013260,0.00541662,-0.00015133,0.10429794,0.35544907,-0.5038
 6092,0.04289074,0.00245414,0.00041464,0.00009722,-0.35825491,0.5017001
 4,-0.02464918,0.04291508,0.10676271,0.00011656,0.00001792,0.00216529,0
 .02483699,-0.04278014,-0.10850501,-0.01809127,-0.04627178,0.00475402,0
 .00243950,-0.00067626,-0.00003527,0.00098374,-0.00052255,0.00001926,-0
 .00158696,-0.03937058,-0.03064566,0.00479696,-0.00051938,-0.00084334,0
 .00002504,0.00070919,-0.00087133,0.00001944,0.04839488,0.02863051,0.00
 417753,0.00497672,0.01349435,-0.00003762,0.00001672,-0.00071903,-0.000
 09921,0.00005350,-0.00041307,-0.00435728,-0.00458249,-0.01029863,0.000
 47804,0.00544178,-0.00043466,0.00134251,-0.00171698,0.00012388,0.00022
 906,-0.00073542,0.00005431,0.01705809,-0.00896821,0.00029101,-0.026718
 27,-0.00131857,-0.00278125,0.00039200,-0.00046118,-0.00021258,0.000067
 83,-0.00006010,-0.00056455,0.00005384,-0.00187235,0.00209058,-0.000265
 97,0.00347159,0.00066024,0.00013767,0.00022014,0.00143081,0.00001405,0
 .00010000,0.00044929,-0.00000085,0.00007209,0.00006499,-0.00031058,-0.
 00008499,-0.00159508,0.00037239,-0.00018720,-0.00052000,0.00243989,-0.
 00067283,-0.00001399,-0.01809262,-0.04626975,0.00476501,-0.00037792,0.
 00091723,-0.00007736,-0.00001900,0.00010966,-0.00001180,-0.00040591,-0
 .00008036,0.00001502,-0.00158294,-0.00052048,-0.00084225,0.00002305,-0
 .03936888,-0.03064027,0.00482559,-0.00040480,0.00123942,-0.00012998,0.
 00011044,0.00025590,-0.00002169,0.00004899,0.00014308,-0.00002207,0.04
 839435,0.02862329,-0.00003789,0.00003940,-0.00072033,0.00417014,0.0050
 0368,0.01348356,0.00003392,-0.00017139,-0.00040318,-0.00000395,-0.0000
 2110,0.00003942,0.00000266,-0.00001859,-0.00010394,-0.00433465,-0.0046
 1831,-0.01028500,-0.01013154,0.00541806,-0.00013026,-0.10440559,0.3540
 3233,-0.02447578,0.00152554,-0.00163751,0.00009695,-0.00037807,-0.0004
 0497,0.00003280,0.00788048,0.00019182,-0.00021526,0.00098310,0.0007109
 9,-0.00009365,0.10429695,0.00245264,0.00041011,0.00007397,0.35544816,-
 0.50385645,0.04283233,-0.00163608,0.00127475,-0.00004970,0.00091798,0.
 00124039,-0.00015738,0.00232919,0.00066829,-0.00010100,-0.00052620,-0.
 00086828,0.00005149,-0.35825109,0.50169462,0.00010494,-0.00000043,0.00
 216832,-0.02457803,0.04288127,0.10676036,0.00010814,-0.00006093,0.0001
 2493,-0.00008040,-0.00013021,-0.00040405,-0.00039672,-0.00004478,0.000
 20336,-0.00000258,0.00002155,-0.00041368,0.02478240,-0.04272348,-0.108
 50338,0.00134322,-0.00171811,0.00012177,0.00047844,0.00544190,-0.00043
 844,0.00788073,0.00232995,-0.00039752,-0.00040606,0.00004941,0.0000045
 7,0.00013600,0.00012914,-0.00001244,0.01705538,-0.00897062,0.00026342,
 0.00022912,-0.00073459,0.00006224,-0.02671683,-0.00046118,-0.00021213,
 0.00006988,-0.00132047,-0.00278050,0.00039517,0.00019176,0.00066786,-0
 .00004646,-0.00008036,0.00014294,-0.00001941,0.00012904,-0.00000380,0.
 00000304,-0.00187209,0.00208912,-0.00026517,-0.00005962,-0.00056343,0.
 00005701,0.00347292,0.00065994,0.00001835,0.00010285,0.00044873,0.0001
 3687,0.00021642,0.00143215,-0.00021612,-0.00010108,0.00020335,0.000014
 20,-0.00002265,-0.00010391,-0.00001286,0.00000287,0.00007057,-0.000339
 65,-0.00007813,-0.00159684,0.00000280,0.00007377,0.00006414,0.00039642
 ,-0.00019406,-0.00051819,-0.02706881,-0.01554306,-0.01841124,0.0020967
 5,0.00212478,0.00183408,0.00267062,-0.00116655,0.00007836,-0.02706559,
 -0.00116239,0.00022200,0.00022990,-0.01554252,-0.01841436,0.00011225,0
 .00022302,0.00251296,0.00205251,0.00215848,0.00184213,-0.01147585,-0.0
 1726101,0.00180426,-0.00638586,-0.00303065,0.00040382,-0.01618125,-0.0
 0122238,0.00408789,-0.00006530,0.00050399,-0.00362318,0.00027855,-0.00
 028782,-0.00621717,0.00042531,0.00033840,0.00244275,0.00012013,0.00036
 787,-0.00036248,0.00042309,0.00032390,-0.00207737,-0.01413849,0.034738
 47,-0.00286435,-0.01063152,-0.01242993,0.00132954,0.00513708,0.0027023
 8,-0.00037968,1.59784707,0.01558017,0.03113654,-0.00396972,-0.00351802
 ,-0.00242912,0.00033043,-0.00029727,-0.00926570,0.00070001,-1.87489225
 ,0.92322467,-0.00122960,-0.00446536,-0.01031897,0.00058400,0.00054905,
 0.00031623,-0.00013901,0.00062442,-0.00114131,0.10227052,-0.08023513,-
 0.59081357,0.03322791,-0.01960182,0.00095271,0.03380162,0.03429234,-0.
 00384077,-0.00639191,-0.01068849,0.00110211,-1.55696950,1.86009087,-0.
 10178353,1.44086314,-0.00194854,-0.01178142,0.00153477,0.00731340,0.00
 080183,-0.00043999,-0.00082079,-0.00028494,0.00015342,1.84786758,-0.95
 004810,0.08417154,-1.87319612,0.95114640,-0.00054684,0.00199560,0.0055
 7376,-0.00155427,-0.00113965,-0.00199975,0.00026694,0.00040986,0.00124
 941,-0.10074645,0.08385190,0.60158239,0.10578322,-0.08401247,-0.606499
 42,-0.01063066,-0.01242578,0.00135080,-0.01413909,0.03473782,-0.002855
 43,-0.01904998,0.00102034,0.00041098,0.00008706,-0.00007252,0.00000326
 ,-0.00228040,0.00106425,-0.00002772,1.59775997,-0.00351915,-0.00242820
 ,0.00032846,0.01558044,0.03113940,-0.00394535,-0.00066810,0.00277000,-
 0.00021065,-0.00007171,0.00190354,-0.00014929,0.00377724,0.00270760,-0
 .00031724,-1.87478911,0.92317116,0.00058410,0.00057183,0.00031487,-0.0
 0123839,-0.00444310,-0.01032828,0.00055382,-0.00026145,0.00009083,0.00
 001099,-0.00014873,0.00013822,-0.00025930,-0.00024688,0.00014700,0.102
 25634,-0.08023285,-0.59077093,-0.00638502,-0.00302932,0.00042460,-0.01
 147663,-0.01726427,0.00184964,0.00121465,0.00269148,-0.00026758,-0.019
 05126,-0.00066855,0.00055179,0.05313587,0.01967400,-0.00305465,0.00513
 629,-0.00029547,-0.00013368,-0.01618230,0.00050237,-0.00362780,0.00025
 515,-0.00122021,0.00408339,-0.00014355,0.00269288,0.00448894,-0.000451
 90,0.00102124,0.00277087,-0.00024762,0.00527988,0.00804515,-0.00084659
 ,0.00269870,-0.00926244,0.00062261,-0.00028766,-0.00621434,0.00010859,
 0.00034903,-0.00035934,0.00050579,0.00028456,0.00244447,-0.00025647,-0
 .00046305,-0.00003341,0.00040791,-0.00021082,0.00008999,-0.00183368,-0
 .00121881,-0.00016852,-0.00040170,0.00070242,-0.00114190,0.00035917,0.
 00040019,-0.00207975,0.03380031,0.03428907,-0.00384314,0.03322645,-0.0
 1960040,0.00094845,0.05313313,0.00528050,-0.00183437,-0.00228044,0.003
 77757,-0.00025743,0.00461328,0.00004622,-0.00012023,-1.55688318,1.8599
 8586,-0.10177388,-0.00639160,-0.01068720,0.00111038,1.44078205,0.00731
 298,0.00080222,-0.00043805,-0.00195054,-0.01177996,0.00153841,0.019672
 76,0.00804417,-0.00122105,0.00106422,0.00270730,-0.00024761,0.00004609
 ,-0.00058652,0.00005860,1.84776630,-0.95000108,0.08413858,-0.00082021,
 -0.00028378,0.00015648,-1.87309161,0.95109764,-0.00155056,-0.00113729,
 -0.00200011,-0.00054813,0.00199289,0.00557473,-0.00305646,-0.00084692,
 -0.00016842,-0.00002848,-0.00031793,0.00014701,-0.00012075,0.00005842,
 0.00011513,-0.10073654,0.08382450,0.60155021,0.00027070,0.00041171,0.0
 0124845,0.10577022,-0.08398537,-0.60646700,-0.02978085,-0.01169898,-0.
 02112090,0.00182862,0.00221484,0.00135905,0.00244357,-0.00153428,0.000
 09339,-0.02977835,-0.00152943,-0.00139893,0.00030474,-0.01170007,-0.02
 112587,0.00012720,0.00029784,0.00165480,0.00178435,0.00224872,0.001367
 12,-0.01119245,-0.01864046,0.00191096,-0.00526103,-0.00188920,0.000293
 63,-0.01542904,-0.00305430,0.00344990,0.00002660,0.00076523,-0.0012669
 8,0.00012367,0.00130743,-0.00661571,0.00057047,0.00041855,0.00231728,0
 .00008465,0.00019017,0.00026492,0.00027605,0.00034203,-0.00177183,-0.0
 1314646,0.03242143,-0.00265821,-0.00929505,-0.01360086,0.00140671,0.00
 377671,0.00262053,-0.00036808,1.59495885,0.01054995,0.02874612,-0.0035
 2110,-0.00213534,-0.00007908,0.00013576,0.00206529,-0.00548701,0.00021
 793,-1.87681086,0.93351221,-0.00079323,-0.00408698,-0.00900236,0.00044
 442,0.00042056,0.00080960,-0.00033484,0.00020568,-0.00228142,0.1024966
 9,-0.08109644,-0.59119334,0.03160885,-0.02212148,0.00118954,0.03461959
 ,0.03705873,-0.00410402,-0.00460122,-0.00838285,0.00087375,-1.55571152
 ,1.86733752,-0.10243315,1.44393102,0.00083113,-0.00917346,0.00117934,0
 .00627384,0.00084605,-0.00044037,-0.00176027,-0.00101617,0.00028485,1.
 85206212,-0.95980243,0.08488413,-1.87774053,0.95827564,-0.00075971,0.0
 0177748,0.00486647,-0.00149443,-0.00123869,-0.00227092,0.00031402,0.00
 045717,0.00177451,-0.10113706,0.08448543,0.60146243,0.10609337,-0.0844
 8679,-0.60631509,-0.00929515,-0.01359813,0.00142806,-0.01314910,0.0324
 2473,-0.00264951,-0.01818914,0.00251036,0.00025526,0.00025260,0.000323
 55,-0.00003827,-0.00264653,0.00047241,0.00003907,1.59505104,-0.0021362
 9,-0.00007781,0.00013379,0.01055195,0.02875207,-0.00349693,-0.00251497
 ,-0.00002447,0.00005169,0.00032426,0.00079288,-0.00007714,0.00118441,0
 .00234074,-0.00019579,-1.87691817,0.93356333,0.00044453,0.00044344,0.0
 0080832,-0.00080198,-0.00406521,-0.00901264,0.00068129,-0.00008562,-0.
 00019494,-0.00003054,-0.00007666,-0.00000680,-0.00002269,-0.00017726,0
 .00040762,0.10249388,-0.08110323,-0.59121742,-0.00525977,-0.00188771,0
 .00031440,-0.01119070,-0.01864141,0.00195617,0.00040012,0.00227775,-0.
 00021839,-0.01818834,-0.00251499,0.00067919,0.05049317,0.01915203,-0.0
 0293176,0.00377622,0.00206702,-0.00032955,-0.01542929,0.00076380,-0.00
 127137,0.00010029,-0.00305057,0.00344589,-0.00005175,0.00227922,0.0027
 1593,-0.00031381,0.00251095,-0.00002347,-0.00007180,0.00195500,0.00824
 454,-0.00074420,0.00261687,-0.00548423,0.00020384,0.00130718,-0.006612
 20,0.00007308,0.00017136,0.00026796,0.00065073,0.00036462,0.00231912,-
 0.00020732,-0.00032498,-0.00031879,0.00025218,0.00005149,-0.00019577,-
 0.00147287,-0.00118907,0.00021017,-0.00039009,0.00022024,-0.00228200,0
 .00021217,0.00041840,-0.00177443,0.03462227,0.03705962,-0.00410675,0.0
 3161107,-0.02212248,0.00118546,0.05049606,0.00195585,-0.00147370,-0.00
 264679,0.00118489,-0.00002083,0.00230664,0.00070928,-0.00012349,-1.555
 79995,1.86744179,-0.10243494,-0.00460140,-0.00838245,0.00088212,1.4440
 1210,0.00627413,0.00084645,-0.00043850,0.00082923,-0.00917316,0.001183
 05,0.01915296,0.00824451,-0.00119141,0.00047245,0.00234077,-0.00017801
 ,0.00070920,0.00028508,-0.00005462,1.85216839,-0.95986253,0.08486070,-
 0.00175986,-0.00101510,0.00028793,-1.87784650,0.95833398,-0.00149096,-
 0.00123653,-0.00227151,-0.00076113,0.00177507,0.00486800,-0.00293379,-
 0.00074454,0.00021027,0.00003832,-0.00019642,0.00040765,-0.00012392,-0
 .00005483,-0.00013518,-0.10113840,0.08446736,0.60149787,0.00031777,0.0
 0045902,0.00177373,0.10609211,-0.08446914,-0.60635083\\@
 The archive entry for this job was punched.


 The hours that make us happy make us wise.
                         -- John Masefield
 Job cpu time:       0 days 12 hours 44 minutes 41.1 seconds.
 Elapsed time:       0 days 12 hours 44 minutes 43.3 seconds.
 File lengths (MBytes):  RWF=     79 Int=      0 D2E=      0 Chk=     45 Scr=      1
 Normal termination of Gaussian 16 at Fri Jun 19 04:17:43 2020.
