 Entering Gaussian System, Link 0=g16
 Input=phosphorous_trifluoride.gjf
 Output=phosphorous_trifluoride.log
 Initial command:
 /apps/gaussian/g16c01/g16/l1.exe "/jobfs/7627943.gadi-pbs/Gau-74894.inp" -scrdir="/jobfs/7627943.gadi-pbs/"
 Entering Link 1 = /apps/gaussian/g16c01/g16/l1.exe PID=     74896.
  
 Copyright (c) 1988-2019, Gaussian, Inc.  All Rights Reserved.
  
 This is part of the Gaussian(R) 16 program.  It is based on
 the Gaussian(R) 09 system (copyright 2009, Gaussian, Inc.),
 the Gaussian(R) 03 system (copyright 2003, Gaussian, Inc.),
 the Gaussian(R) 98 system (copyright 1998, Gaussian, Inc.),
 the Gaussian(R) 94 system (copyright 1995, Gaussian, Inc.),
 the Gaussian 92(TM) system (copyright 1992, Gaussian, Inc.),
 the Gaussian 90(TM) system (copyright 1990, Gaussian, Inc.),
 the Gaussian 88(TM) system (copyright 1988, Gaussian, Inc.),
 the Gaussian 86(TM) system (copyright 1986, Carnegie Mellon
 University), and the Gaussian 82(TM) system (copyright 1983,
 Carnegie Mellon University). Gaussian is a federally registered
 trademark of Gaussian, Inc.
  
 This software contains proprietary and confidential information,
 including trade secrets, belonging to Gaussian, Inc.
  
 This software is provided under written license and may be
 used, copied, transmitted, or stored only in accord with that
 written license.
  
 The following legend is applicable only to US Government
 contracts under FAR:
  
                    RESTRICTED RIGHTS LEGEND
  
 Use, reproduction and disclosure by the US Government is
 subject to restrictions as set forth in subparagraphs (a)
 and (c) of the Commercial Computer Software - Restricted
 Rights clause in FAR 52.227-19.
  
 Gaussian, Inc.
 340 Quinnipiac St., Bldg. 40, Wallingford CT 06492
  
  
 ---------------------------------------------------------------
 Warning -- This program may not be used in any manner that
 competes with the business of Gaussian, Inc. or will provide
 assistance to any competitor of Gaussian, Inc.  The licensee
 of this program is prohibited from giving any competitor of
 Gaussian, Inc. access to this program.  By using this program,
 the user acknowledges that Gaussian, Inc. is engaged in the
 business of creating and licensing software in the field of
 computational chemistry and represents and warrants to the
 licensee that it is not a competitor of Gaussian, Inc. and that
 it will not use this program in any manner prohibited above.
 ---------------------------------------------------------------
  

 Cite this work as:
 Gaussian 16, Revision C.01,
 M. J. Frisch, G. W. Trucks, H. B. Schlegel, G. E. Scuseria, 
 M. A. Robb, J. R. Cheeseman, G. Scalmani, V. Barone, 
 G. A. Petersson, H. Nakatsuji, X. Li, M. Caricato, A. V. Marenich, 
 J. Bloino, B. G. Janesko, R. Gomperts, B. Mennucci, H. P. Hratchian, 
 J. V. Ortiz, A. F. Izmaylov, J. L. Sonnenberg, D. Williams-Young, 
 F. Ding, F. Lipparini, F. Egidi, J. Goings, B. Peng, A. Petrone, 
 T. Henderson, D. Ranasinghe, V. G. Zakrzewski, J. Gao, N. Rega, 
 G. Zheng, W. Liang, M. Hada, M. Ehara, K. Toyota, R. Fukuda, 
 J. Hasegawa, M. Ishida, T. Nakajima, Y. Honda, O. Kitao, H. Nakai, 
 T. Vreven, K. Throssell, J. A. Montgomery, Jr., J. E. Peralta, 
 F. Ogliaro, M. J. Bearpark, J. J. Heyd, E. N. Brothers, K. N. Kudin, 
 V. N. Staroverov, T. A. Keith, R. Kobayashi, J. Normand, 
 K. Raghavachari, A. P. Rendell, J. C. Burant, S. S. Iyengar, 
 J. Tomasi, M. Cossi, J. M. Millam, M. Klene, C. Adamo, R. Cammi, 
 J. W. Ochterski, R. L. Martin, K. Morokuma, O. Farkas, 
 J. B. Foresman, and D. J. Fox, Gaussian, Inc., Wallingford CT, 2019.
 
 ******************************************
 Gaussian 16:  ES64L-G16RevC.01  3-Jul-2019
                23-Jun-2020 
 ******************************************
 %NprocShared=4
 Will use up to    4 processors via shared memory.
 %chk=checkpoint.chk
 -------------------------------------------------------
 # M06/Def2TZVP Freq=(anharmonic,ReadAnharm) Opt=CalcAll
 -------------------------------------------------------
 1/10=4,18=20,19=15,26=3,38=1,80=1/1,3;
 2/9=110,12=2,17=6,18=5,40=1/2;
 3/5=44,7=101,11=2,25=1,30=1,71=2,74=-54,140=1/1,2,3;
 4//1;
 5/5=2,38=5/2;
 8/6=4,10=90,11=11/1;
 11/6=1,8=1,9=11,15=111,16=1/1,2,10;
 10/6=1/2;
 6/7=2,8=2,9=2,10=2,18=1,28=1/1;
 7/10=1,25=1/1,2,3,16;
 1/10=4,18=20,19=15,26=3,80=1/3(3);
 2/9=110/2;
 7/8=1,9=1,25=1,44=-1,71=2,72=1/16;
 99//99;
 2/9=110/2;
 3/5=44,7=101,11=2,25=1,30=1,71=2,74=-54,140=1/1,2,3;
 4/5=5,16=3,69=1/1;
 5/5=2,38=5/2;
 8/6=4,10=90,11=11/1;
 11/6=1,8=1,9=11,15=111,16=1/1,2,10;
 10/6=1/2;
 7/10=1,25=1/1,2,3,16;
 1/10=4,18=20,19=15,26=3,80=1/3(-8);
 2/9=110/2;
 6/7=2,8=2,9=2,10=2,18=1,19=2,28=1/1;
 7/8=1,9=1,25=1,44=-1,71=1,72=1/16;
 99//99;
 -------------------------------------------------------------
 Anharmonic frequencies for phosphorous trifluoride using VPT2
 -------------------------------------------------------------
 Symbolic Z-matrix:
 Charge =  0 Multiplicity = 1
 P                    -0.53161   2.14075  -0.22716 
 F                     1.0071    1.97419   0.06484 
 F                    -0.88604   2.64957   1.22063 
 F                    -0.88604   0.63556   0.07185 
 

 GradGradGradGradGradGradGradGradGradGradGradGradGradGradGradGradGradGrad
 Berny optimization.
 Initialization pass.
                           ----------------------------
                           !    Initial Parameters    !
                           ! (Angstroms and Degrees)  !
 --------------------------                            --------------------------
 ! Name  Definition              Value          Derivative Info.                !
 --------------------------------------------------------------------------------
 ! R1    R(1,2)                  1.575          calculate D2E/DX2 analytically  !
 ! R2    R(1,3)                  1.575          calculate D2E/DX2 analytically  !
 ! R3    R(1,4)                  1.575          calculate D2E/DX2 analytically  !
 ! A1    A(2,1,3)               94.795          calculate D2E/DX2 analytically  !
 ! A2    A(2,1,4)               94.7948         calculate D2E/DX2 analytically  !
 ! A3    A(3,1,4)               94.7948         calculate D2E/DX2 analytically  !
 ! D1    D(2,1,4,3)             95.2335         calculate D2E/DX2 analytically  !
 --------------------------------------------------------------------------------
 Trust Radius=3.00D-01 FncErr=1.00D-07 GrdErr=1.00D-06 EigMax=2.50D+02 EigMin=1.00D-04
 Number of steps in this run=     20 maximum allowed number of steps=    100.
 GradGradGradGradGradGradGradGradGradGradGradGradGradGradGradGradGradGrad

                          Input orientation:                          
 ---------------------------------------------------------------------
 Center     Atomic      Atomic             Coordinates (Angstroms)
 Number     Number       Type             X           Y           Z
 ---------------------------------------------------------------------
      1         15           0       -0.531610    2.140750   -0.227160
      2          9           0        1.007100    1.974190    0.064840
      3          9           0       -0.886040    2.649570    1.220630
      4          9           0       -0.886040    0.635560    0.071850
 ---------------------------------------------------------------------
                    Distance matrix (angstroms):
                    1          2          3          4
     1  P    0.000000
     2  F    1.575003   0.000000
     3  F    1.574997   2.318613   0.000000
     4  F    1.575000   2.318611   2.318606   0.000000
 Stoichiometry    F3P
 Framework group  C1[X(F3P)]
 Deg. of freedom     6
 Full point group                 C1      NOp   1
 Largest Abelian subgroup         C1      NOp   1
 Largest concise Abelian subgroup C1      NOp   1
                         Standard orientation:                         
 ---------------------------------------------------------------------
 Center     Atomic      Atomic             Coordinates (Angstroms)
 Number     Number       Type             X           Y           Z
 ---------------------------------------------------------------------
      1         15           0       -0.000001   -0.000002    0.533471
      2          9           0        1.328181   -0.167117   -0.296372
      3          9           0       -0.808819   -1.066673   -0.296375
      4          9           0       -0.519360    1.233794   -0.296372
 ---------------------------------------------------------------------
 Rotational constants (GHZ):           7.7886444           7.7885952           4.9481706
 Standard basis: def2TZVP (5D, 7F)
 There are   150 symmetry adapted cartesian basis functions of A   symmetry.
 There are   130 symmetry adapted basis functions of A   symmetry.
   130 basis functions,   222 primitive gaussians,   150 cartesian basis functions
    21 alpha electrons       21 beta electrons
       nuclear repulsion energy       191.5341307666 Hartrees.
 NAtoms=    4 NActive=    4 NUniq=    4 SFac= 1.00D+00 NAtFMM=   60 NAOKFM=F Big=F
 Integral buffers will be    131072 words long.
 Raffenetti 2 integral format.
 Two-electron integral symmetry is turned on.
 One-electron integrals computed using PRISM.
   1 Symmetry operations used in ECPInt.
 ECPInt:  NShTT=    1081 NPrTT=    3930 LenC2=    1067 LenP2D=    3195.
 LDataN:  DoStor=T MaxTD1= 6 Len=  172
 NBasis=   130 RedAO= T EigKep=  4.38D-03  NBF=   130
 NBsUse=   130 1.00D-06 EigRej= -1.00D+00 NBFU=   130
 ExpMin= 9.04D-02 ExpMax= 5.24D+04 ExpMxC= 1.79D+03 IAcc=3 IRadAn=         5 AccDes= 0.00D+00
 Harris functional with IExCor= 1009 and IRadAn=       5 diagonalized for initial guess.
 HarFok:  IExCor= 1009 AccDes= 0.00D+00 IRadAn=         5 IDoV= 1 UseB2=F ITyADJ=14
 ICtDFT=  3500011 ScaDFX=  1.000000  1.000000  1.000000  1.000000
 FoFCou: FMM=F IPFlag=           0 FMFlag=      100000 FMFlg1=           0
         NFxFlg=           0 DoJE=T BraDBF=F KetDBF=T FulRan=T
         wScrn=  0.000000 ICntrl=       500 IOpCl=  0 I1Cent=   200000004 NGrid=           0
         NMat0=    1 NMatS0=      1 NMatT0=    0 NMatD0=    1 NMtDS0=    0 NMtDT0=    0
 Petite list used in FoFCou.
 Keep R1 ints in memory in canonical form, NReq=40166078.
 Requested convergence on RMS density matrix=1.00D-08 within 128 cycles.
 Requested convergence on MAX density matrix=1.00D-06.
 Requested convergence on             energy=1.00D-06.
 No special actions if energy rises.
 Integral accuracy reduced to 1.0D-05 until final iterations.
 Initial convergence to 1.0D-05 achieved.  Increase integral accuracy.
 SCF Done:  E(RM06) =  -641.028117492     A.U. after   12 cycles
            NFock= 12  Conv=0.36D-08     -V/T= 2.0025
 DoSCS=F DFT=T ScalE2(SS,OS)=  1.000000  1.000000
 Range of M.O.s used for correlation:     1   130
 NBasis=   130 NAE=    21 NBE=    21 NFC=     0 NFV=     0
 NROrb=    130 NOA=    21 NOB=    21 NVA=   109 NVB=   109
   1 Symmetry operations used in ECPInt.
 ECPInt:  NShTT=    1081 NPrTT=    3930 LenC2=    1067 LenP2D=    3195.
 LDataN:  DoStor=T MaxTD1= 7 Len=  274
 Symmetrizing basis deriv contribution to polar:
 IMax=3 JMax=2 DiffMx= 0.00D+00
 G2DrvN: will do     5 centers at a time, making    1 passes.
 Calling FoFCou, ICntrl=  3107 FMM=F I1Cent=   0 AccDes= 0.00D+00.
 End of G2Drv F.D. properties file   721 does not exist.
 End of G2Drv F.D. properties file   722 does not exist.
 End of G2Drv F.D. properties file   788 does not exist.
          IDoAtm=1111
          Differentiating once with respect to electric field.
                with respect to dipole field.
          Differentiating once with respect to nuclear coordinates.
 Keep R1 ints in memory in canonical form, NReq=40156103.
          There are    15 degrees of freedom in the 1st order CPHF.  IDoFFX=6 NUNeed=     3.
     12 vectors produced by pass  0 Test12= 1.53D-14 6.67D-09 XBig12= 1.56D+01 2.85D+00.
 AX will form    12 AO Fock derivatives at one time.
     12 vectors produced by pass  1 Test12= 1.53D-14 6.67D-09 XBig12= 2.00D+00 4.44D-01.
     12 vectors produced by pass  2 Test12= 1.53D-14 6.67D-09 XBig12= 3.42D-02 3.93D-02.
     12 vectors produced by pass  3 Test12= 1.53D-14 6.67D-09 XBig12= 6.08D-04 7.22D-03.
     12 vectors produced by pass  4 Test12= 1.53D-14 6.67D-09 XBig12= 5.41D-06 4.88D-04.
     12 vectors produced by pass  5 Test12= 1.53D-14 6.67D-09 XBig12= 3.17D-08 4.58D-05.
      9 vectors produced by pass  6 Test12= 1.53D-14 6.67D-09 XBig12= 3.24D-10 3.38D-06.
      4 vectors produced by pass  7 Test12= 1.53D-14 6.67D-09 XBig12= 7.50D-13 1.79D-07.
      1 vectors produced by pass  8 Test12= 1.53D-14 6.67D-09 XBig12= 2.12D-15 1.51D-08.
 InvSVY:  IOpt=1 It=  1 EMax= 1.67D-15
 Solved reduced A of dimension    86 with    12 vectors.
 Isotropic polarizability for W=    0.000000       22.41 Bohr**3.
 End of Minotr F.D. properties file   721 does not exist.
 End of Minotr F.D. properties file   722 does not exist.
 End of Minotr F.D. properties file   788 does not exist.

 **********************************************************************

            Population analysis using the SCF Density.

 **********************************************************************

 Orbital symmetries:
       Occupied  (A) (A) (A) (A) (A) (A) (A) (A) (A) (A) (A) (A)
                 (A) (A) (A) (A) (A) (A) (A) (A) (A)
       Virtual   (A) (A) (A) (A) (A) (A) (A) (A) (A) (A) (A) (A)
                 (A) (A) (A) (A) (A) (A) (A) (A) (A) (A) (A) (A)
                 (A) (A) (A) (A) (A) (A) (A) (A) (A) (A) (A) (A)
                 (A) (A) (A) (A) (A) (A) (A) (A) (A) (A) (A) (A)
                 (A) (A) (A) (A) (A) (A) (A) (A) (A) (A) (A) (A)
                 (A) (A) (A) (A) (A) (A) (A) (A) (A) (A) (A) (A)
                 (A) (A) (A) (A) (A) (A) (A) (A) (A) (A) (A) (A)
                 (A) (A) (A) (A) (A) (A) (A) (A) (A) (A) (A) (A)
                 (A) (A) (A) (A) (A) (A) (A) (A) (A) (A) (A) (A)
                 (A)
 The electronic state is 1-A.
 Alpha  occ. eigenvalues --  -77.38752 -24.80853 -24.80852 -24.80852  -6.79064
 Alpha  occ. eigenvalues --   -4.91198  -4.91198  -4.90425  -1.31820  -1.26424
 Alpha  occ. eigenvalues --   -1.26424  -0.69629  -0.58162  -0.58162  -0.54850
 Alpha  occ. eigenvalues --   -0.50958  -0.50958  -0.46566  -0.46566  -0.45276
 Alpha  occ. eigenvalues --   -0.34784
 Alpha virt. eigenvalues --   -0.01379  -0.01377   0.11021   0.21761   0.21763
 Alpha virt. eigenvalues --    0.22946   0.26682   0.35931   0.35932   0.36668
 Alpha virt. eigenvalues --    0.43700   0.43701   0.54228   0.54569   0.54570
 Alpha virt. eigenvalues --    0.60829   0.64450   0.64453   0.66539   0.73104
 Alpha virt. eigenvalues --    0.73106   0.86656   0.86660   0.91638   1.11749
 Alpha virt. eigenvalues --    1.11755   1.15194   1.18169   1.18176   1.25911
 Alpha virt. eigenvalues --    1.28869   1.36334   1.36343   1.45704   1.47639
 Alpha virt. eigenvalues --    1.47643   1.67530   1.88123   1.88130   1.96590
 Alpha virt. eigenvalues --    1.96590   2.03155   2.15132   2.15133   2.20559
 Alpha virt. eigenvalues --    2.44558   2.44564   2.45004   2.47605   2.58089
 Alpha virt. eigenvalues --    2.58090   2.62243   2.67241   2.67241   3.26709
 Alpha virt. eigenvalues --    3.31173   3.31175   3.35585   3.42656   3.42658
 Alpha virt. eigenvalues --    3.65288   3.76871   3.76874   4.05832   4.07661
 Alpha virt. eigenvalues --    4.07662   6.66229   6.66230   6.69338   6.82359
 Alpha virt. eigenvalues --    6.83577   6.83578   6.85333   6.85334   6.85938
 Alpha virt. eigenvalues --    6.86037   6.86039   6.86257   6.86258   6.86451
 Alpha virt. eigenvalues --    6.94475   6.95983   6.96405   6.97220   6.97221
 Alpha virt. eigenvalues --    7.00948   7.00949   7.65586   7.87556   7.87561
 Alpha virt. eigenvalues --    8.31329   8.31330   8.36700   8.39927   8.40887
 Alpha virt. eigenvalues --    8.40888   8.56010   8.56731   8.56731   8.74026
 Alpha virt. eigenvalues --    8.78630   8.81543   8.81544   8.93979   8.93979
 Alpha virt. eigenvalues --   15.04171  56.69709  56.69710  56.85775
          Condensed to atoms (all electrons):
               1          2          3          4
     1  P   13.542061   0.229270   0.229322   0.229294
     2  F    0.229270   9.075334  -0.023954  -0.023940
     3  F    0.229322  -0.023954   9.075252  -0.023955
     4  F    0.229294  -0.023940  -0.023955   9.075279
 Mulliken charges:
               1
     1  P    0.770052
     2  F   -0.256710
     3  F   -0.256665
     4  F   -0.256677
 Sum of Mulliken charges =  -0.00000
 Mulliken charges with hydrogens summed into heavy atoms:
               1
     1  P    0.770052
     2  F   -0.256710
     3  F   -0.256665
     4  F   -0.256677
 APT charges:
               1
     1  P    1.825228
     2  F   -0.608537
     3  F   -0.608609
     4  F   -0.608083
 Sum of APT charges =  -0.00000
 APT charges with hydrogens summed into heavy atoms:
               1
     1  P    1.825228
     2  F   -0.608537
     3  F   -0.608609
     4  F   -0.608083
 Electronic spatial extent (au):  <R**2>=            257.1758
 Charge=             -0.0000 electrons
 Dipole moment (field-independent basis, Debye):
    X=             -0.0001    Y=              0.0001    Z=              1.4288  Tot=              1.4288
 Quadrupole moment (field-independent basis, Debye-Ang):
   XX=            -27.5724   YY=            -27.5721   ZZ=            -26.4741
   XY=             -0.0001   XZ=              0.0001   YZ=              0.0001
 Traceless Quadrupole moment (field-independent basis, Debye-Ang):
   XX=             -0.3662   YY=             -0.3659   ZZ=              0.7321
   XY=             -0.0001   XZ=              0.0001   YZ=              0.0001
 Octapole moment (field-independent basis, Debye-Ang**2):
  XXX=             -2.0991  YYY=             -0.8273  ZZZ=             -8.2900  XYY=              2.0988
  XXY=              0.8275  XXZ=             -0.6954  XZZ=             -0.0000  YZZ=              0.0002
  YYZ=             -0.6953  XYZ=             -0.0001
 Hexadecapole moment (field-independent basis, Debye-Ang**3):
 XXXX=           -102.5189 YYYY=           -102.5170 ZZZZ=            -56.4780 XXXY=             -0.0000
 XXXZ=              0.0019 YYYX=             -0.0001 YYYZ=              0.0004 ZZZX=              0.0004
 ZZZY=              0.0001 XXYY=            -34.1728 XXZZ=            -24.7802 YYZZ=            -24.7796
 XXYZ=             -0.0006 YYXZ=             -0.0014 ZZXY=             -0.0002
 N-N= 1.915341307666D+02 E-N=-1.910759521927D+03  KE= 6.394317561117D+02
  Exact polarizability:      23.388       0.002      23.331       0.016       0.014      20.500
 Approx polarizability:      31.699       0.001      31.698      -0.000       0.000      25.302
   1 Symmetry operations used in ECPInt.
 ECPInt:  NShTT=    1081 NPrTT=    3930 LenC2=    1067 LenP2D=    3195.
 LDataN:  DoStor=T MaxTD1= 8 Len=  415
 Calling FoFJK, ICntrl=    100127 FMM=F ISym2X=0 I1Cent= 0 IOpClX= 0 NMat=1 NMatS=1 NMatT=0.
 ***** Axes restored to original set *****
 -------------------------------------------------------------------
 Center     Atomic                   Forces (Hartrees/Bohr)
 Number     Number              X              Y              Z
 -------------------------------------------------------------------
      1       15           0.009634722   -0.013523728    0.023705597
      2        9          -0.001444926    0.004805138   -0.008431762
      3        9          -0.004095369    0.005761462   -0.006837565
      4        9          -0.004094428    0.002957128   -0.008436270
 -------------------------------------------------------------------
 Cartesian Forces:  Max     0.023705597 RMS     0.009692542
 FormGI is forming the generalized inverse of G from B-inverse, IUseBI=4.

 GradGradGradGradGradGradGradGradGradGradGradGradGradGradGradGradGradGrad
 Berny optimization.
 Internal  Forces:  Max     0.019188937 RMS     0.011847578
 Search for a local minimum.
 Step number   1 out of a maximum of   20
 All quantities printed in internal units (Hartrees-Bohrs-Radians)
 Mixed Optimization -- RFO/linear search
 Second derivative matrix not updated -- analytic derivatives used.
 The second derivative matrix:
                          R1        R2        R3        A1        A2
           R1           0.33349
           R2           0.02741   0.33340
           R3           0.02741   0.02749   0.33245
           A1           0.01679   0.01692  -0.00486   0.09169
           A2           0.03502  -0.00477   0.03625  -0.00459   0.37013
           A3          -0.00477   0.03490   0.03629  -0.00457   0.05135
           D1           0.01970   0.01982   0.00177   0.09155   0.03411
                          A3        D1
           A3           0.36947
           D1           0.03407   0.09852
 ITU=  0
     Eigenvalues ---    0.17567   0.27203   0.30344   0.35245   0.35420
     Eigenvalues ---    0.47135
 RFO step:  Lambda=-2.88096346D-03 EMin= 1.75670941D-01
 Linear search not attempted -- first point.
 Iteration  1 RMS(Cart)=  0.03885762 RMS(Int)=  0.00136785
 Iteration  2 RMS(Cart)=  0.00121418 RMS(Int)=  0.00070622
 Iteration  3 RMS(Cart)=  0.00000047 RMS(Int)=  0.00070622
 Variable       Old X    -DE/DX   Delta X   Delta X   Delta X     New X
                                 (Linear)    (Quad)   (Total)
    R1        2.97632  -0.00349   0.00000  -0.01696  -0.01696   2.95936
    R2        2.97631  -0.00350   0.00000  -0.01705  -0.01705   2.95927
    R3        2.97632  -0.00350   0.00000  -0.01683  -0.01683   2.95949
    A1        1.65449   0.00830   0.00000   0.04523   0.04391   1.69839
    A2        1.65448   0.01917   0.00000   0.04398   0.04379   1.69827
    A3        1.65448   0.01919   0.00000   0.04413   0.04394   1.69842
    D1        1.66214   0.01189   0.00000   0.05367   0.05497   1.71711
         Item               Value     Threshold  Converged?
 Maximum Force            0.019189     0.000450     NO 
 RMS     Force            0.011848     0.000300     NO 
 Maximum Displacement     0.057107     0.001800     NO 
 RMS     Displacement     0.038361     0.001200     NO 
 Predicted change in Energy=-1.454387D-03
 GradGradGradGradGradGradGradGradGradGradGradGradGradGradGradGradGradGrad

                          Input orientation:                          
 ---------------------------------------------------------------------
 Center     Atomic      Atomic             Coordinates (Angstroms)
 Number     Number       Type             X           Y           Z
 ---------------------------------------------------------------------
      1         15           0       -0.519343    2.123574   -0.196940
      2          9           0        1.020804    1.983020    0.049301
      3          9           0       -0.899043    2.668010    1.221403
      4          9           0       -0.899008    0.625466    0.056396
 ---------------------------------------------------------------------
                    Distance matrix (angstroms):
                    1          2          3          4
     1  P    0.000000
     2  F    1.566028   0.000000
     3  F    1.565976   2.351350   0.000000
     4  F    1.566095   2.351315   2.351432   0.000000
 Stoichiometry    F3P
 Framework group  C1[X(F3P)]
 Deg. of freedom     6
 Full point group                 C1      NOp   1
 Largest Abelian subgroup         C1      NOp   1
 Largest concise Abelian subgroup C1      NOp   1
                         Standard orientation:                         
 ---------------------------------------------------------------------
 Center     Atomic      Atomic             Coordinates (Angstroms)
 Number     Number       Type             X           Y           Z
 ---------------------------------------------------------------------
      1         15           0       -0.000080    0.000016    0.501876
      2          9           0        0.202402   -1.342365   -0.278803
      3          9           0       -1.263718    0.495933   -0.278871
      4          9           0        1.061449    0.846406   -0.278787
 ---------------------------------------------------------------------
 Rotational constants (GHZ):           7.8052792           7.8045326           4.8112716
 Standard basis: def2TZVP (5D, 7F)
 There are   150 symmetry adapted cartesian basis functions of A   symmetry.
 There are   130 symmetry adapted basis functions of A   symmetry.
   130 basis functions,   222 primitive gaussians,   150 cartesian basis functions
    21 alpha electrons       21 beta electrons
       nuclear repulsion energy       191.5406904964 Hartrees.
 NAtoms=    4 NActive=    4 NUniq=    4 SFac= 1.00D+00 NAtFMM=   60 NAOKFM=F Big=F
 Integral buffers will be    131072 words long.
 Raffenetti 2 integral format.
 Two-electron integral symmetry is turned on.
 One-electron integrals computed using PRISM.
   1 Symmetry operations used in ECPInt.
 ECPInt:  NShTT=    1081 NPrTT=    3930 LenC2=    1067 LenP2D=    3192.
 LDataN:  DoStor=T MaxTD1= 6 Len=  172
 NBasis=   130 RedAO= T EigKep=  4.49D-03  NBF=   130
 NBsUse=   130 1.00D-06 EigRej= -1.00D+00 NBFU=   130
 Initial guess from the checkpoint file:  "checkpoint.chk"
 B after Tr=     0.000000    0.000000    0.000000
         Rot=    0.797288   -0.000013    0.000027    0.603599 Ang= -74.26 deg.
 ExpMin= 9.04D-02 ExpMax= 5.24D+04 ExpMxC= 1.79D+03 IAcc=3 IRadAn=         5 AccDes= 0.00D+00
 Harris functional with IExCor= 1009 and IRadAn=       5 diagonalized for initial guess.
 HarFok:  IExCor= 1009 AccDes= 0.00D+00 IRadAn=         5 IDoV= 1 UseB2=F ITyADJ=14
 ICtDFT=  3500011 ScaDFX=  1.000000  1.000000  1.000000  1.000000
 FoFCou: FMM=F IPFlag=           0 FMFlag=      100000 FMFlg1=           0
         NFxFlg=           0 DoJE=T BraDBF=F KetDBF=T FulRan=T
         wScrn=  0.000000 ICntrl=       500 IOpCl=  0 I1Cent=   200000004 NGrid=           0
         NMat0=    1 NMatS0=      1 NMatT0=    0 NMatD0=    1 NMtDS0=    0 NMtDT0=    0
 Petite list used in FoFCou.
 Keep R1 ints in memory in canonical form, NReq=40166078.
 Requested convergence on RMS density matrix=1.00D-08 within 128 cycles.
 Requested convergence on MAX density matrix=1.00D-06.
 Requested convergence on             energy=1.00D-06.
 No special actions if energy rises.
 Integral accuracy reduced to 1.0D-05 until final iterations.
 Initial convergence to 1.0D-05 achieved.  Increase integral accuracy.
 SCF Done:  E(RM06) =  -641.029580319     A.U. after   11 cycles
            NFock= 11  Conv=0.36D-08     -V/T= 2.0024
 DoSCS=F DFT=T ScalE2(SS,OS)=  1.000000  1.000000
 Range of M.O.s used for correlation:     1   130
 NBasis=   130 NAE=    21 NBE=    21 NFC=     0 NFV=     0
 NROrb=    130 NOA=    21 NOB=    21 NVA=   109 NVB=   109
   1 Symmetry operations used in ECPInt.
 ECPInt:  NShTT=    1081 NPrTT=    3930 LenC2=    1067 LenP2D=    3192.
 LDataN:  DoStor=T MaxTD1= 7 Len=  274
 Symmetrizing basis deriv contribution to polar:
 IMax=3 JMax=2 DiffMx= 0.00D+00
 G2DrvN: will do     5 centers at a time, making    1 passes.
 Calling FoFCou, ICntrl=  3107 FMM=F I1Cent=   0 AccDes= 0.00D+00.
 End of G2Drv F.D. properties file   721 does not exist.
 End of G2Drv F.D. properties file   722 does not exist.
 End of G2Drv F.D. properties file   788 does not exist.
          IDoAtm=1111
          Differentiating once with respect to electric field.
                with respect to dipole field.
          Differentiating once with respect to nuclear coordinates.
 Keep R1 ints in memory in canonical form, NReq=40156103.
          There are    15 degrees of freedom in the 1st order CPHF.  IDoFFX=6 NUNeed=     3.
     12 vectors produced by pass  0 Test12= 1.53D-14 6.67D-09 XBig12= 1.57D+01 3.00D+00.
 AX will form    12 AO Fock derivatives at one time.
     12 vectors produced by pass  1 Test12= 1.53D-14 6.67D-09 XBig12= 2.02D+00 4.38D-01.
     12 vectors produced by pass  2 Test12= 1.53D-14 6.67D-09 XBig12= 3.23D-02 4.31D-02.
     12 vectors produced by pass  3 Test12= 1.53D-14 6.67D-09 XBig12= 5.71D-04 6.20D-03.
     12 vectors produced by pass  4 Test12= 1.53D-14 6.67D-09 XBig12= 3.98D-06 4.42D-04.
     12 vectors produced by pass  5 Test12= 1.53D-14 6.67D-09 XBig12= 2.55D-08 4.08D-05.
      8 vectors produced by pass  6 Test12= 1.53D-14 6.67D-09 XBig12= 2.90D-10 3.57D-06.
      4 vectors produced by pass  7 Test12= 1.53D-14 6.67D-09 XBig12= 9.57D-13 1.75D-07.
      1 vectors produced by pass  8 Test12= 1.53D-14 6.67D-09 XBig12= 3.19D-15 9.04D-09.
 InvSVY:  IOpt=1 It=  1 EMax= 1.44D-15
 Solved reduced A of dimension    85 with    12 vectors.
 Isotropic polarizability for W=    0.000000       22.37 Bohr**3.
 End of Minotr F.D. properties file   721 does not exist.
 End of Minotr F.D. properties file   722 does not exist.
 End of Minotr F.D. properties file   788 does not exist.
   1 Symmetry operations used in ECPInt.
 ECPInt:  NShTT=    1081 NPrTT=    3930 LenC2=    1067 LenP2D=    3192.
 LDataN:  DoStor=T MaxTD1= 8 Len=  415
 Calling FoFJK, ICntrl=    100127 FMM=F ISym2X=0 I1Cent= 0 IOpClX= 0 NMat=1 NMatS=1 NMatT=0.
 ***** Axes restored to original set *****
 -------------------------------------------------------------------
 Center     Atomic                   Forces (Hartrees/Bohr)
 Number     Number              X              Y              Z
 -------------------------------------------------------------------
      1       15          -0.000029033   -0.000057761   -0.000074111
      2        9           0.000628087    0.000114820   -0.000149686
      3        9          -0.000312608    0.000438765    0.000401511
      4        9          -0.000286446   -0.000495824   -0.000177714
 -------------------------------------------------------------------
 Cartesian Forces:  Max     0.000628087 RMS     0.000322836
 FormGI is forming the generalized inverse of G from B-inverse, IUseBI=4.

 GradGradGradGradGradGradGradGradGradGradGradGradGradGradGradGradGradGrad
 Berny optimization.
 Using GEDIIS/GDIIS optimizer.
 Internal  Forces:  Max     0.000661151 RMS     0.000538474
 Search for a local minimum.
 Step number   2 out of a maximum of   20
 All quantities printed in internal units (Hartrees-Bohrs-Radians)
 Mixed Optimization -- En-DIIS/RFO-DIIS
 Second derivative matrix not updated -- analytic derivatives used.
 DE= -1.46D-03 DEPred=-1.45D-03 R= 1.01D+00
 TightC=F SS=  1.41D+00  RLast= 9.83D-02 DXNew= 5.0454D-01 2.9484D-01
 Trust test= 1.01D+00 RLast= 9.83D-02 DXMaxT set to 3.00D-01
 The second derivative matrix:
                          R1        R2        R3        A1        A2
           R1           0.34774
           R2           0.02515   0.34698
           R3           0.02518   0.02519   0.34725
           A1           0.01165   0.01143  -0.00568   0.08293
           A2           0.02438  -0.00581   0.02598  -0.01127   0.33287
           A3          -0.00576   0.02412   0.02608  -0.01121   0.04621
           D1           0.01464   0.01436   0.00194   0.08117   0.04483
                          A3        D1
           A3           0.33310
           D1           0.04490   0.09605
 ITU=  1  0
 Use linear search instead of GDIIS.
     Eigenvalues ---    0.16209   0.26962   0.31894   0.33936   0.36088
     Eigenvalues ---    0.43603
 RFO step:  Lambda=-3.42677055D-06 EMin= 1.62092593D-01
 Quintic linear search produced a step of  0.02227.
 Iteration  1 RMS(Cart)=  0.00180914 RMS(Int)=  0.00001716
 Iteration  2 RMS(Cart)=  0.00000097 RMS(Int)=  0.00001712
 Variable       Old X    -DE/DX   Delta X   Delta X   Delta X     New X
                                 (Linear)    (Quad)   (Total)
    R1        2.95936   0.00058  -0.00038   0.00164   0.00126   2.96063
    R2        2.95927   0.00060  -0.00038   0.00172   0.00134   2.96060
    R3        2.95949   0.00051  -0.00037   0.00143   0.00105   2.96054
    A1        1.69839   0.00023   0.00098   0.00030   0.00125   1.69964
    A2        1.69827   0.00066   0.00098   0.00047   0.00144   1.69971
    A3        1.69842   0.00063   0.00098   0.00036   0.00133   1.69975
    D1        1.71711   0.00043   0.00122   0.00043   0.00169   1.71879
         Item               Value     Threshold  Converged?
 Maximum Force            0.000661     0.000450     NO 
 RMS     Force            0.000538     0.000300     NO 
 Maximum Displacement     0.002288     0.001800     NO 
 RMS     Displacement     0.001809     0.001200     NO 
 Predicted change in Energy=-2.474107D-06
 GradGradGradGradGradGradGradGradGradGradGradGradGradGradGradGradGradGrad

                          Input orientation:                          
 ---------------------------------------------------------------------
 Center     Atomic      Atomic             Coordinates (Angstroms)
 Number     Number       Type             X           Y           Z
 ---------------------------------------------------------------------
      1         15           0       -0.519082    2.123125   -0.196321
      2          9           0        1.022015    1.983421    0.048713
      3          9           0       -0.899746    2.669035    1.221979
      4          9           0       -0.899777    0.624490    0.055789
 ---------------------------------------------------------------------
                    Distance matrix (angstroms):
                    1          2          3          4
     1  P    0.000000
     2  F    1.566696   0.000000
     3  F    1.566684   2.353675   0.000000
     4  F    1.566651   2.353727   2.353755   0.000000
 Stoichiometry    F3P
 Framework group  C1[X(F3P)]
 Deg. of freedom     6
 Full point group                 C1      NOp   1
 Largest Abelian subgroup         C1      NOp   1
 Largest concise Abelian subgroup C1      NOp   1
                         Standard orientation:                         
 ---------------------------------------------------------------------
 Center     Atomic      Atomic             Coordinates (Angstroms)
 Number     Number       Type             X           Y           Z
 ---------------------------------------------------------------------
      1         15           0        0.000043    0.000023    0.501186
      2          9           0       -0.457278   -1.279671   -0.278414
      3          9           0       -0.879657    1.035795   -0.278430
      4          9           0        1.336864    0.243838   -0.278466
 ---------------------------------------------------------------------
 Rotational constants (GHZ):           7.7965385           7.7960338           4.8016544
 Standard basis: def2TZVP (5D, 7F)
 There are   150 symmetry adapted cartesian basis functions of A   symmetry.
 There are   130 symmetry adapted basis functions of A   symmetry.
   130 basis functions,   222 primitive gaussians,   150 cartesian basis functions
    21 alpha electrons       21 beta electrons
       nuclear repulsion energy       191.4297681597 Hartrees.
 NAtoms=    4 NActive=    4 NUniq=    4 SFac= 1.00D+00 NAtFMM=   60 NAOKFM=F Big=F
 Integral buffers will be    131072 words long.
 Raffenetti 2 integral format.
 Two-electron integral symmetry is turned on.
 One-electron integrals computed using PRISM.
   1 Symmetry operations used in ECPInt.
 ECPInt:  NShTT=    1081 NPrTT=    3930 LenC2=    1067 LenP2D=    3186.
 LDataN:  DoStor=T MaxTD1= 6 Len=  172
 NBasis=   130 RedAO= T EigKep=  4.49D-03  NBF=   130
 NBsUse=   130 1.00D-06 EigRej= -1.00D+00 NBFU=   130
 Initial guess from the checkpoint file:  "checkpoint.chk"
 B after Tr=     0.000000   -0.000000   -0.000000
         Rot=    0.969799   -0.000001   -0.000042    0.243907 Ang= -28.23 deg.
 Keep R1 ints in memory in canonical form, NReq=40166078.
 Requested convergence on RMS density matrix=1.00D-08 within 128 cycles.
 Requested convergence on MAX density matrix=1.00D-06.
 Requested convergence on             energy=1.00D-06.
 No special actions if energy rises.
 SCF Done:  E(RM06) =  -641.029580920     A.U. after    7 cycles
            NFock=  7  Conv=0.42D-08     -V/T= 2.0025
 DoSCS=F DFT=T ScalE2(SS,OS)=  1.000000  1.000000
 Range of M.O.s used for correlation:     1   130
 NBasis=   130 NAE=    21 NBE=    21 NFC=     0 NFV=     0
 NROrb=    130 NOA=    21 NOB=    21 NVA=   109 NVB=   109
   1 Symmetry operations used in ECPInt.
 ECPInt:  NShTT=    1081 NPrTT=    3930 LenC2=    1067 LenP2D=    3186.
 LDataN:  DoStor=T MaxTD1= 7 Len=  274
 Symmetrizing basis deriv contribution to polar:
 IMax=3 JMax=2 DiffMx= 0.00D+00
 G2DrvN: will do     5 centers at a time, making    1 passes.
 Calling FoFCou, ICntrl=  3107 FMM=F I1Cent=   0 AccDes= 0.00D+00.
 End of G2Drv F.D. properties file   721 does not exist.
 End of G2Drv F.D. properties file   722 does not exist.
 End of G2Drv F.D. properties file   788 does not exist.
          IDoAtm=1111
          Differentiating once with respect to electric field.
                with respect to dipole field.
          Differentiating once with respect to nuclear coordinates.
 Keep R1 ints in memory in canonical form, NReq=40156103.
          There are    15 degrees of freedom in the 1st order CPHF.  IDoFFX=6 NUNeed=     3.
     12 vectors produced by pass  0 Test12= 1.53D-14 6.67D-09 XBig12= 1.57D+01 3.14D+00.
 AX will form    12 AO Fock derivatives at one time.
     12 vectors produced by pass  1 Test12= 1.53D-14 6.67D-09 XBig12= 2.03D+00 5.68D-01.
     12 vectors produced by pass  2 Test12= 1.53D-14 6.67D-09 XBig12= 3.24D-02 4.35D-02.
     12 vectors produced by pass  3 Test12= 1.53D-14 6.67D-09 XBig12= 5.68D-04 6.22D-03.
     12 vectors produced by pass  4 Test12= 1.53D-14 6.67D-09 XBig12= 3.84D-06 4.81D-04.
     12 vectors produced by pass  5 Test12= 1.53D-14 6.67D-09 XBig12= 2.55D-08 4.07D-05.
      8 vectors produced by pass  6 Test12= 1.53D-14 6.67D-09 XBig12= 2.91D-10 3.62D-06.
      4 vectors produced by pass  7 Test12= 1.53D-14 6.67D-09 XBig12= 9.82D-13 1.97D-07.
      1 vectors produced by pass  8 Test12= 1.53D-14 6.67D-09 XBig12= 3.33D-15 9.32D-09.
 InvSVY:  IOpt=1 It=  1 EMax= 1.55D-15
 Solved reduced A of dimension    85 with    12 vectors.
 Isotropic polarizability for W=    0.000000       22.37 Bohr**3.
 End of Minotr F.D. properties file   721 does not exist.
 End of Minotr F.D. properties file   722 does not exist.
 End of Minotr F.D. properties file   788 does not exist.
   1 Symmetry operations used in ECPInt.
 ECPInt:  NShTT=    1081 NPrTT=    3930 LenC2=    1067 LenP2D=    3186.
 LDataN:  DoStor=T MaxTD1= 8 Len=  415
 Calling FoFJK, ICntrl=    100127 FMM=F ISym2X=0 I1Cent= 0 IOpClX= 0 NMat=1 NMatS=1 NMatT=0.
 ***** Axes restored to original set *****
 -------------------------------------------------------------------
 Center     Atomic                   Forces (Hartrees/Bohr)
 Number     Number              X              Y              Z
 -------------------------------------------------------------------
      1       15           0.000015048    0.000043532    0.000013709
      2        9           0.000005683    0.000005357   -0.000020101
      3        9          -0.000019279   -0.000001087   -0.000002362
      4        9          -0.000001452   -0.000047802    0.000008753
 -------------------------------------------------------------------
 Cartesian Forces:  Max     0.000047802 RMS     0.000021441
 FormGI is forming the generalized inverse of G from B-inverse, IUseBI=4.

 GradGradGradGradGradGradGradGradGradGradGradGradGradGradGradGradGradGrad
 Berny optimization.
 Using GEDIIS/GDIIS optimizer.
 Internal  Forces:  Max     0.000044429 RMS     0.000021470
 Search for a local minimum.
 Step number   3 out of a maximum of   20
 All quantities printed in internal units (Hartrees-Bohrs-Radians)
 Mixed Optimization -- En-DIIS/RFO-DIIS
 Swapping is turned off.
 Second derivative matrix not updated -- analytic derivatives used.
 DE= -6.01D-07 DEPred=-2.47D-06 R= 2.43D-01
 Trust test= 2.43D-01 RLast= 3.57D-03 DXMaxT set to 3.00D-01
 The second derivative matrix:
                          R1        R2        R3        A1        A2
           R1           0.34568
           R2           0.02505   0.34532
           R3           0.02500   0.02503   0.34572
           A1           0.01131   0.01136  -0.00564   0.08255
           A2           0.02364  -0.00590   0.02565  -0.01138   0.33056
           A3          -0.00579   0.02345   0.02584  -0.01127   0.04571
           D1           0.01421   0.01422   0.00200   0.08075   0.04500
                          A3        D1
           A3           0.33056
           D1           0.04510   0.09588
 ITU=  0  1  0
     Eigenvalues ---    0.16140   0.26829   0.31737   0.33700   0.35936
     Eigenvalues ---    0.43285
 En-DIIS/RFO-DIIS/Sim-DIIS IScMMF=       -3 using points:     3    2
 RFO step:  Lambda=-1.34911563D-08.
 DidBck=F Rises=F RFO-DIIS coefs:    1.03548   -0.03548
 Iteration  1 RMS(Cart)=  0.00010384 RMS(Int)=  0.00000003
 Iteration  2 RMS(Cart)=  0.00000000 RMS(Int)=  0.00000003
 Variable       Old X    -DE/DX   Delta X   Delta X   Delta X     New X
                                 (Linear)    (Quad)   (Total)
    R1        2.96063   0.00001   0.00004  -0.00005  -0.00000   2.96062
    R2        2.96060   0.00000   0.00005  -0.00007  -0.00002   2.96058
    R3        2.96054   0.00004   0.00004   0.00010   0.00014   2.96068
    A1        1.69964   0.00002   0.00004   0.00012   0.00016   1.69980
    A2        1.69971  -0.00000   0.00005  -0.00008  -0.00003   1.69968
    A3        1.69975   0.00000   0.00005  -0.00006  -0.00002   1.69973
    D1        1.71879   0.00002   0.00006   0.00010   0.00016   1.71895
         Item               Value     Threshold  Converged?
 Maximum Force            0.000044     0.000450     YES
 RMS     Force            0.000021     0.000300     YES
 Maximum Displacement     0.000159     0.001800     YES
 RMS     Displacement     0.000104     0.001200     YES
 Predicted change in Energy=-6.737324D-09
 Optimization completed.
    -- Stationary point found.
                           ----------------------------
                           !   Optimized Parameters   !
                           ! (Angstroms and Degrees)  !
 --------------------------                            --------------------------
 ! Name  Definition              Value          Derivative Info.                !
 --------------------------------------------------------------------------------
 ! R1    R(1,2)                  1.5667         -DE/DX =    0.0                 !
 ! R2    R(1,3)                  1.5667         -DE/DX =    0.0                 !
 ! R3    R(1,4)                  1.5667         -DE/DX =    0.0                 !
 ! A1    A(2,1,3)               97.3822         -DE/DX =    0.0                 !
 ! A2    A(2,1,4)               97.3864         -DE/DX =    0.0                 !
 ! A3    A(3,1,4)               97.3886         -DE/DX =    0.0                 !
 ! D1    D(2,1,4,3)             98.4797         -DE/DX =    0.0                 !
 --------------------------------------------------------------------------------
 GradGradGradGradGradGradGradGradGradGradGradGradGradGradGradGradGradGrad

                          Input orientation:                          
 ---------------------------------------------------------------------
 Center     Atomic      Atomic             Coordinates (Angstroms)
 Number     Number       Type             X           Y           Z
 ---------------------------------------------------------------------
      1         15           0       -0.519082    2.123125   -0.196321
      2          9           0        1.022015    1.983421    0.048713
      3          9           0       -0.899746    2.669035    1.221979
      4          9           0       -0.899777    0.624490    0.055789
 ---------------------------------------------------------------------
                    Distance matrix (angstroms):
                    1          2          3          4
     1  P    0.000000
     2  F    1.566696   0.000000
     3  F    1.566684   2.353675   0.000000
     4  F    1.566651   2.353727   2.353755   0.000000
 Stoichiometry    F3P
 Framework group  C1[X(F3P)]
 Deg. of freedom     6
 Full point group                 C1      NOp   1
 Largest Abelian subgroup         C1      NOp   1
 Largest concise Abelian subgroup C1      NOp   1
                         Standard orientation:                         
 ---------------------------------------------------------------------
 Center     Atomic      Atomic             Coordinates (Angstroms)
 Number     Number       Type             X           Y           Z
 ---------------------------------------------------------------------
      1         15           0        0.000043    0.000023    0.501186
      2          9           0       -0.457278   -1.279671   -0.278414
      3          9           0       -0.879657    1.035795   -0.278430
      4          9           0        1.336864    0.243838   -0.278466
 ---------------------------------------------------------------------
 Rotational constants (GHZ):           7.7965385           7.7960338           4.8016544

 **********************************************************************

            Population analysis using the SCF Density.

 **********************************************************************

 Orbital symmetries:
       Occupied  (A) (A) (A) (A) (A) (A) (A) (A) (A) (A) (A) (A)
                 (A) (A) (A) (A) (A) (A) (A) (A) (A)
       Virtual   (A) (A) (A) (A) (A) (A) (A) (A) (A) (A) (A) (A)
                 (A) (A) (A) (A) (A) (A) (A) (A) (A) (A) (A) (A)
                 (A) (A) (A) (A) (A) (A) (A) (A) (A) (A) (A) (A)
                 (A) (A) (A) (A) (A) (A) (A) (A) (A) (A) (A) (A)
                 (A) (A) (A) (A) (A) (A) (A) (A) (A) (A) (A) (A)
                 (A) (A) (A) (A) (A) (A) (A) (A) (A) (A) (A) (A)
                 (A) (A) (A) (A) (A) (A) (A) (A) (A) (A) (A) (A)
                 (A) (A) (A) (A) (A) (A) (A) (A) (A) (A) (A) (A)
                 (A) (A) (A) (A) (A) (A) (A) (A) (A) (A) (A) (A)
                 (A)
 The electronic state is 1-A.
 Alpha  occ. eigenvalues --  -77.38360 -24.81357 -24.81356 -24.81356  -6.78729
 Alpha  occ. eigenvalues --   -4.90854  -4.90854  -4.90073  -1.32241  -1.27160
 Alpha  occ. eigenvalues --   -1.27158  -0.69851  -0.58715  -0.58714  -0.55097
 Alpha  occ. eigenvalues --   -0.51436  -0.51436  -0.47406  -0.47405  -0.46004
 Alpha  occ. eigenvalues --   -0.33666
 Alpha virt. eigenvalues --   -0.00249  -0.00249   0.10846   0.22009   0.22010
 Alpha virt. eigenvalues --    0.22732   0.25578   0.36710   0.36712   0.36744
 Alpha virt. eigenvalues --    0.43803   0.43804   0.54049   0.54284   0.54286
 Alpha virt. eigenvalues --    0.61027   0.64480   0.64481   0.66136   0.73150
 Alpha virt. eigenvalues --    0.73152   0.85809   0.85814   0.92444   1.12195
 Alpha virt. eigenvalues --    1.12204   1.14797   1.18835   1.18838   1.26604
 Alpha virt. eigenvalues --    1.29684   1.36563   1.36571   1.45510   1.48025
 Alpha virt. eigenvalues --    1.48027   1.69061   1.89464   1.89475   1.96059
 Alpha virt. eigenvalues --    1.96060   2.00655   2.12491   2.12492   2.21734
 Alpha virt. eigenvalues --    2.46885   2.47433   2.47442   2.48123   2.58100
 Alpha virt. eigenvalues --    2.58101   2.58927   2.67109   2.67115   3.27383
 Alpha virt. eigenvalues --    3.31948   3.31949   3.32741   3.40574   3.40583
 Alpha virt. eigenvalues --    3.63791   3.76772   3.76774   4.05289   4.08295
 Alpha virt. eigenvalues --    4.08304   6.65806   6.65807   6.69387   6.81806
 Alpha virt. eigenvalues --    6.83053   6.83054   6.85071   6.85072   6.85421
 Alpha virt. eigenvalues --    6.85511   6.85512   6.85762   6.85764   6.85949
 Alpha virt. eigenvalues --    6.93895   6.95779   6.96772   6.97348   6.97351
 Alpha virt. eigenvalues --    6.99739   6.99739   7.62890   7.90967   7.90979
 Alpha virt. eigenvalues --    8.30627   8.30629   8.35054   8.39948   8.39948
 Alpha virt. eigenvalues --    8.40496   8.56940   8.57532   8.57533   8.72892
 Alpha virt. eigenvalues --    8.74674   8.81409   8.81413   8.95079   8.95084
 Alpha virt. eigenvalues --   15.13945  56.69887  56.69888  56.85694
          Condensed to atoms (all electrons):
               1          2          3          4
     1  P   13.601455   0.216863   0.216853   0.216682
     2  F    0.216863   9.069956  -0.018715  -0.018692
     3  F    0.216853  -0.018715   9.069957  -0.018696
     4  F    0.216682  -0.018692  -0.018696   9.070041
 Mulliken charges:
               1
     1  P    0.748147
     2  F   -0.249413
     3  F   -0.249399
     4  F   -0.249336
 Sum of Mulliken charges =  -0.00000
 Mulliken charges with hydrogens summed into heavy atoms:
               1
     1  P    0.748147
     2  F   -0.249413
     3  F   -0.249399
     4  F   -0.249336
 APT charges:
               1
     1  P    1.841326
     2  F   -0.613472
     3  F   -0.614016
     4  F   -0.613838
 Sum of APT charges =   0.00000
 APT charges with hydrogens summed into heavy atoms:
               1
     1  P    1.841326
     2  F   -0.613472
     3  F   -0.614016
     4  F   -0.613838
 Electronic spatial extent (au):  <R**2>=            259.8104
 Charge=             -0.0000 electrons
 Dipole moment (field-independent basis, Debye):
    X=              0.0002    Y=              0.0001    Z=              1.0661  Tot=              1.0661
 Quadrupole moment (field-independent basis, Debye-Ang):
   XX=            -27.5435   YY=            -27.5433   ZZ=            -26.7279
   XY=              0.0000   XZ=             -0.0001   YZ=             -0.0001
 Traceless Quadrupole moment (field-independent basis, Debye-Ang):
   XX=             -0.2720   YY=             -0.2717   ZZ=              0.5437
   XY=              0.0000   XZ=             -0.0001   YZ=             -0.0001
 Octapole moment (field-independent basis, Debye-Ang**2):
  XXX=             -1.9082  YYY=              1.1474  ZZZ=             -8.4304  XYY=              1.9085
  XXY=             -1.1472  XXZ=             -0.7443  XZZ=             -0.0004  YZZ=             -0.0003
  YYZ=             -0.7444  XYZ=              0.0000
 Hexadecapole moment (field-independent basis, Debye-Ang**3):
 XXXX=           -104.5040 YYYY=           -104.4976 ZZZZ=            -53.9188 XXXY=              0.0000
 XXXZ=              0.0246 YYYX=             -0.0000 YYYZ=             -0.0148 ZZZX=             -0.0004
 ZZZY=             -0.0005 XXYY=            -34.8336 XXZZ=            -24.8097 YYZZ=            -24.8083
 XXYZ=              0.0146 YYXZ=             -0.0245 ZZXY=             -0.0000
 N-N= 1.914297681597D+02 E-N=-1.910471727089D+03  KE= 6.394621618186D+02
  Exact polarizability:      23.578      -0.001      23.540       0.024      -0.028      19.998
 Approx polarizability:      31.968      -0.000      31.967      -0.000      -0.000      24.269
 Rotating derivatives to standard orientation.
 Full mass-weighted force constant matrix:
 Low frequencies ---  -12.1282  -11.0699    0.0004    0.0037    0.0037   15.2363
 Low frequencies ---  347.3029  347.5955  489.7372
 Diagonal vibrational polarizability:
        8.4890574       8.4913982       8.0954902
 Harmonic frequencies (cm**-1), IR intensities (KM/Mole), Raman scattering
 activities (A**4/AMU), depolarization ratios for plane and unpolarized
 incident light, reduced masses (AMU), force constants (mDyne/A),
 and normal coordinates:
                      1                      2                      3
                      A                      A                      A
 Frequencies --    347.3020               347.5953               489.7363
 Red. masses --     19.8135                19.8144                21.1154
 Frc consts  --      1.4081                 1.4105                 2.9838
 IR Inten    --      4.8415                 4.8378                27.9086
  Atom  AN      X      Y      Z        X      Y      Z        X      Y      Z
     1  15    -0.00  -0.26   0.00    -0.26   0.00   0.00    -0.00   0.00   0.42
     2   9    -0.33  -0.27   0.15     0.55  -0.33   0.05     0.16   0.44  -0.23
     3   9     0.52   0.06  -0.12     0.22   0.52   0.11     0.31  -0.36  -0.23
     4   9    -0.19   0.63  -0.03    -0.35  -0.19  -0.16    -0.46  -0.08  -0.23
                      4                      5                      6
                      A                      A                      A
 Frequencies --    865.6172               865.9495               903.9591
 Red. masses --     22.6771                22.6761                22.3574
 Frc consts  --     10.0113                10.0185                10.7639
 IR Inten    --    206.3538               206.5171               150.7291
  Atom  AN      X      Y      Z        X      Y      Z        X      Y      Z
     1  15    -0.38   0.41  -0.00     0.41   0.38  -0.00     0.00   0.00   0.53
     2   9    -0.08  -0.26  -0.16    -0.18  -0.49  -0.31    -0.13  -0.38  -0.29
     3   9     0.38  -0.45   0.35     0.01  -0.03   0.02    -0.26   0.30  -0.29
     4   9     0.31   0.04  -0.19    -0.48  -0.10   0.29     0.39   0.07  -0.29

 -------------------
 - Thermochemistry -
 -------------------
 Temperature   298.150 Kelvin.  Pressure   1.00000 Atm.
 Atom     1 has atomic number 15 and mass  30.97376
 Atom     2 has atomic number  9 and mass  18.99840
 Atom     3 has atomic number  9 and mass  18.99840
 Atom     4 has atomic number  9 and mass  18.99840
 Molecular mass:    87.96897 amu.
 Principal axes and moments of inertia in atomic units:
                           1         2         3
     Eigenvalues --   231.47980 231.49479 375.85820
           X            1.00000   0.00000   0.00000
           Y           -0.00000   1.00000   0.00000
           Z           -0.00000  -0.00000   1.00000
 This molecule is an asymmetric top.
 Rotational symmetry number  1.
 Rotational temperatures (Kelvin)      0.37417     0.37415     0.23044
 Rotational constants (GHZ):           7.79654     7.79603     4.80165
 Zero-point vibrational energy      22849.6 (Joules/Mol)
                                    5.46119 (Kcal/Mol)
 Warning -- explicit consideration of   3 degrees of freedom as
           vibrations may cause significant error
 Vibrational temperatures:    499.69   500.11   704.62  1245.43  1245.91
          (Kelvin)           1300.60
 
 Zero-point correction=                           0.008703 (Hartree/Particle)
 Thermal correction to Energy=                    0.012672
 Thermal correction to Enthalpy=                  0.013616
 Thermal correction to Gibbs Free Energy=        -0.018383
 Sum of electronic and zero-point Energies=           -641.020878
 Sum of electronic and thermal Energies=              -641.016909
 Sum of electronic and thermal Enthalpies=            -641.015965
 Sum of electronic and thermal Free Energies=         -641.047964
 
                     E (Thermal)             CV                S
                      KCal/Mol        Cal/Mol-Kelvin    Cal/Mol-Kelvin
 Total                    7.952             11.987             67.347
 Electronic               0.000              0.000              0.000
 Translational            0.889              2.981             39.336
 Rotational               0.889              2.981             24.514
 Vibrational              6.174              6.025              3.497
 Vibration     1          0.725              1.581              1.178
 Vibration     2          0.725              1.580              1.177
 Vibration     3          0.846              1.273              0.684
                       Q            Log10(Q)             Ln(Q)
 Total Bot       0.285416D+09          8.455479         19.469459
 Total V=0       0.287449D+13         12.458560         28.686895
 Vib (Bot)       0.173239D-03         -3.761354         -8.660838
 Vib (Bot)    1  0.532164D+00         -0.273955         -0.630804
 Vib (Bot)    2  0.531614D+00         -0.274404         -0.631838
 Vib (Bot)    3  0.338639D+00         -0.470263         -1.082820
 Vib (V=0)       0.174473D+01          0.241727          0.556598
 Vib (V=0)    1  0.123020D+01          0.089977          0.207180
 Vib (V=0)    2  0.122980D+01          0.089836          0.206855
 Vib (V=0)    3  0.110388D+01          0.042924          0.098835
 Electronic      0.100000D+01          0.000000          0.000000
 Translational   0.324301D+08          7.510948         17.294597
 Rotational      0.508025D+05          4.705885         10.835700
 ***** Axes restored to original set *****
 -------------------------------------------------------------------
 Center     Atomic                   Forces (Hartrees/Bohr)
 Number     Number              X              Y              Z
 -------------------------------------------------------------------
      1       15           0.000015048    0.000043532    0.000013709
      2        9           0.000005683    0.000005357   -0.000020101
      3        9          -0.000019279   -0.000001087   -0.000002362
      4        9          -0.000001452   -0.000047802    0.000008753
 -------------------------------------------------------------------
 Cartesian Forces:  Max     0.000047802 RMS     0.000021441

 ----------------------------------------------------------------------

 Electric dipole moment (input orientation):
 (Debye = 10**-18 statcoulomb cm , SI units = C m)
                  (au)            (Debye)         (10**-30 SI)
   Tot        0.419425D+00      0.106607D+01      0.355603D+01
   x         -0.139879D+00     -0.355536D+00     -0.118594D+01
   y          0.195862D+00      0.497831D+00      0.166059D+01
   z         -0.343495D+00     -0.873078D+00     -0.291228D+01

 Dipole polarizability, Alpha (input orientation).
 (esu units = cm**3 , SI units = C**2 m**2 J**-1)
 Alpha(0;0):
               (au)            (10**-24 esu)      (10**-40 SI)
   iso        0.223721D+02      0.331520D+01      0.368866D+01
   aniso      0.356215D+01      0.527856D+00      0.587319D+00
   xx         0.231378D+02      0.342867D+01      0.381491D+01
   yx         0.577857D+00      0.856295D-01      0.952757D-01
   yy         0.227738D+02      0.337473D+01      0.375489D+01
   zx        -0.970141D+00     -0.143760D+00     -0.159955D+00
   zy         0.137813D+01      0.204218D+00      0.227223D+00
   zz         0.212047D+02      0.314221D+01      0.349618D+01

 ----------------------------------------------------------------------

 Dipole orientation:
    15         -0.45370314         -3.27389782          2.50454137
     9          2.10344389         -3.50712157          1.03079979
     9         -1.93459322         -5.37184448          1.03119354
     9         -1.53048299         -0.94228716          1.03180881

 Electric dipole moment (dipole orientation):
 (Debye = 10**-18 statcoulomb cm , SI units = C m)
                  (au)            (Debye)         (10**-30 SI)
   Tot        0.419425D+00      0.106607D+01      0.355603D+01
   x          0.000000D+00      0.000000D+00      0.000000D+00
   y          0.000000D+00      0.000000D+00      0.000000D+00
   z          0.419425D+00      0.106607D+01      0.355603D+01

 Dipole polarizability, Alpha (dipole orientation).
 (esu units = cm**3 , SI units = C**2 m**2 J**-1)
 Alpha(0;0):
               (au)            (10**-24 esu)      (10**-40 SI)
   iso        0.223721D+02      0.331520D+01      0.368866D+01
   aniso      0.356215D+01      0.527856D+00      0.587319D+00
   xx         0.235419D+02      0.348854D+01      0.388153D+01
   yx        -0.831329D-02     -0.123190D-02     -0.137068D-02
   yy         0.235766D+02      0.349369D+01      0.388726D+01
   zx         0.210653D-01      0.312155D-02      0.347319D-02
   zy         0.305038D-01      0.452020D-02      0.502940D-02
   zz         0.199978D+02      0.296337D+01      0.329720D+01

 ----------------------------------------------------------------------
 Unable to Open any file for archive entry.
 1\1\GINC-GADI-CPU-CLX-1411\Freq\RM06\def2TZVP\F3P1\PK8622\23-Jun-2020\
 0\\# M06/Def2TZVP Freq=(anharmonic,ReadAnharm) Opt=CalcAll\\Anharmonic
  frequencies for phosphorous trifluoride using VPT2\\0,1\P,-0.51908151
 74,2.1231245122,-0.1963207089\F,1.0220148395,1.9834211241,0.0487126451
 \F,-0.8997464438,2.6690348311,1.2219788265\F,-0.8997768782,0.624489532
 5,0.0557892373\\Version=ES64L-G16RevC.01\State=1-A\HF=-641.0295809\RMS
 D=4.177e-09\RMSF=2.144e-05\ZeroPoint=0.008703\Thermal=0.0126716\ETot=-
 641.0169093\HTot=-641.0159652\GTot=-641.0479637\Dipole=-0.1398787,0.19
 58619,-0.3434955\DipoleDeriv=1.8405752,-0.0000465,0.0022873,0.0005647,
 1.8390346,-0.0031456,-0.0006325,0.0017804,1.8443694,-1.2156826,0.04037
 47,-0.0735185,0.1893985,-0.2799816,0.0537304,-0.3314692,0.0520091,-0.3
 44753,-0.3121491,0.0875005,0.0971693,0.0882561,-0.3764668,-0.1420064,0
 .2701276,-0.3877331,-1.1534309,-0.3127435,-0.1278286,-0.025938,-0.2782
 193,-1.1825862,0.0914216,0.061974,0.3339436,-0.3461855\Polar=23.137823
 9,0.5778566,22.7737976,-0.9701406,1.3781315,21.2046686\PG=C01 [X(F3P1)
 ]\NImag=0\\0.39056405,-0.00941141,0.39681716,0.01690230,-0.02344237,0.
 42497082,-0.30067496,0.03314701,-0.05817185,0.33980580,0.04611867,-0.0
 4113376,0.01816880,-0.02159432,0.03942005,-0.08081800,0.01818274,-0.06
 269925,0.03790371,-0.00363530,0.04372601,-0.04501121,0.02021158,0.0389
 2871,-0.01961450,0.00991151,0.03410174,0.05914442,0.02026968,-0.059515
 14,-0.05647727,0.00994252,0.00160119,-0.01038903,-0.03107227,0.0815659
 9,0.05402028,-0.07780147,-0.29908749,0.01906878,-0.00500917,0.00871596
 ,-0.07150289,0.10238464,0.28144257,-0.04487789,-0.04394719,0.00234083,
 -0.01951634,-0.03443585,0.00881256,0.00548129,0.00086007,-0.00158616,0
 .05891293,-0.05697694,-0.29616826,0.06175084,-0.02149522,0.00011252,-0
 .00415841,0.00094919,-0.02365204,-0.01957400,0.07752297,0.31970778,0.0
 0989543,0.08306109,-0.06318408,0.00119937,-0.00952434,0.01025728,-0.00
 152756,-0.03551833,0.00892896,-0.00956724,-0.03801843,0.04399784\\-0.0
 0001505,-0.00004353,-0.00001371,-0.00000568,-0.00000536,0.00002010,0.0
 0001928,0.00000109,0.00000236,0.00000145,0.00004780,-0.00000875\\\@
 The archive entry for this job was punched.


 ON A TOMBSTONE, "HERE LIES LESTER MOORE,
 FOUR SLUGS FROM A 44, NO LES, NO MORE".
 Job cpu time:       0 days  0 hours  8 minutes 59.4 seconds.
 Elapsed time:       0 days  0 hours  2 minutes 16.7 seconds.
 File lengths (MBytes):  RWF=     14 Int=      0 D2E=      0 Chk=     76 Scr=      1
 Normal termination of Gaussian 16 at Tue Jun 23 17:26:29 2020.
 Link1:  Proceeding to internal job step number  2.
 ------------------------------------------------------------------
 #N Geom=AllCheck Guess=TCheck SCRF=Check GenChk RM06/def2TZVP Freq
 ------------------------------------------------------------------
 1/10=4,29=7,30=1,38=21,40=1,80=1/1,6,3;
 2/12=2,40=1/2;
 3/5=44,7=101,11=2,14=-4,25=1,30=1,70=2,71=2,74=-54,116=1,140=1/1,2,3;
 4/5=101,69=2/1;
 5/5=2,38=6,98=1/2;
 8/6=4,10=90,11=11/1;
 11/6=1,8=1,9=11,15=111,16=1/1,2,10;
 10/6=1,60=-2/2;
 6/7=2,8=2,9=2,10=2,28=1/1;
 7/10=1,25=1,71=2,72=1/1,2,3,16;
 1/38=20,80=1/6(3);
 7/8=1,25=202,44=-1,71=1,72=1,92=10/16,17;
 1/10=4,30=1,38=20,80=1/3;
 99//99;
 3/5=44,7=101,11=2,14=-2,25=1,30=1,70=5,71=2,74=-54,116=1,140=1/1,2,3;
 4/5=5,16=3,69=2/1;
 5/5=2,38=5,98=1/2;
 8/6=4,10=90,11=11/1;
 11/6=1,8=1,9=11,15=111,16=1/1,2,10;
 10/6=1,60=-2/2;
 6/7=2,8=2,9=2,10=2,28=1/1;
 7/7=1,10=1,25=1,71=1,72=1/1,2,3,16;
 1/38=20,80=1/6(-8);
 7/8=1,25=202,44=-1,71=1,72=1,92=10/16,17;
 1/10=4,30=1,38=20,80=1/3;
 99//99;
 Structure from the checkpoint file:  "checkpoint.chk"
 -------------------------------------------------------------
 Anharmonic frequencies for phosphorous trifluoride using VPT2
 -------------------------------------------------------------
 Charge =  0 Multiplicity = 1
 Redundant internal coordinates found in file.  (old form).
 P,0,-0.5190815174,2.1231245122,-0.1963207089
 F,0,1.0220148395,1.9834211241,0.0487126451
 F,0,-0.8997464438,2.6690348311,1.2219788265
 F,0,-0.8997768782,0.6244895325,0.0557892373
 Recover connectivity data from disk.
 Numerical evaluation of third derivatives.
 Nuclear step= 0.010000 Angstroms, electric field step= 0.000333 atomic units, NStep=1.

 GradGradGradGradGradGradGradGradGradGradGradGradGradGradGradGradGradGrad
 Berny optimization.
 Initialization pass.
                           ----------------------------
                           !    Initial Parameters    !
                           ! (Angstroms and Degrees)  !
 --------------------------                            --------------------------
 ! Name  Definition              Value          Derivative Info.                !
 --------------------------------------------------------------------------------
 ! R1    R(1,2)                  1.5667         calculate D2E/DX2 analytically  !
 ! R2    R(1,3)                  1.5667         calculate D2E/DX2 analytically  !
 ! R3    R(1,4)                  1.5667         calculate D2E/DX2 analytically  !
 ! A1    A(2,1,3)               97.3822         calculate D2E/DX2 analytically  !
 ! A2    A(2,1,4)               97.3864         calculate D2E/DX2 analytically  !
 ! A3    A(3,1,4)               97.3886         calculate D2E/DX2 analytically  !
 ! D1    D(2,1,4,3)             98.4797         calculate D2E/DX2 analytically  !
 --------------------------------------------------------------------------------
 Trust Radius=3.00D-01 FncErr=1.00D-07 GrdErr=1.00D-07 EigMax=2.50D+02 EigMin=1.00D-04
 Number of steps in this run=      2 maximum allowed number of steps=      2.
 GradGradGradGradGradGradGradGradGradGradGradGradGradGradGradGradGradGrad

                          Input orientation:                          
 ---------------------------------------------------------------------
 Center     Atomic      Atomic             Coordinates (Angstroms)
 Number     Number       Type             X           Y           Z
 ---------------------------------------------------------------------
      1         15           0       -0.519082    2.123125   -0.196321
      2          9           0        1.022015    1.983421    0.048713
      3          9           0       -0.899746    2.669035    1.221979
      4          9           0       -0.899777    0.624490    0.055789
 ---------------------------------------------------------------------
                    Distance matrix (angstroms):
                    1          2          3          4
     1  P    0.000000
     2  F    1.566696   0.000000
     3  F    1.566684   2.353675   0.000000
     4  F    1.566651   2.353727   2.353755   0.000000
 Stoichiometry    F3P
 Framework group  C1[X(F3P)]
 Deg. of freedom     6
 Full point group                 C1      NOp   1
 Largest Abelian subgroup         C1      NOp   1
 Largest concise Abelian subgroup C1      NOp   1
                         Standard orientation:                         
 ---------------------------------------------------------------------
 Center     Atomic      Atomic             Coordinates (Angstroms)
 Number     Number       Type             X           Y           Z
 ---------------------------------------------------------------------
      1         15           0        0.000043    0.000023    0.501186
      2          9           0       -0.457278   -1.279671   -0.278414
      3          9           0       -0.879657    1.035795   -0.278430
      4          9           0        1.336864    0.243838   -0.278466
 ---------------------------------------------------------------------
 Rotational constants (GHZ):           7.7965385           7.7960338           4.8016544
 Standard basis: def2TZVP (5D, 7F)
 There are   150 symmetry adapted cartesian basis functions of A   symmetry.
 There are   130 symmetry adapted basis functions of A   symmetry.
   130 basis functions,   222 primitive gaussians,   150 cartesian basis functions
    21 alpha electrons       21 beta electrons
       nuclear repulsion energy       191.4297681597 Hartrees.
 NAtoms=    4 NActive=    4 NUniq=    4 SFac= 1.00D+00 NAtFMM=   60 NAOKFM=F Big=F
 Integral buffers will be    131072 words long.
 Raffenetti 2 integral format.
 Two-electron integral symmetry is turned on.
 One-electron integrals computed using PRISM.
   1 Symmetry operations used in ECPInt.
 ECPInt:  NShTT=    1081 NPrTT=    3930 LenC2=    1067 LenP2D=    3186.
 LDataN:  DoStor=T MaxTD1= 6 Len=  172
 NBasis=   130 RedAO= T EigKep=  4.49D-03  NBF=   130
 NBsUse=   130 1.00D-06 EigRej= -1.00D+00 NBFU=   130
 Initial guess from the checkpoint file:  "checkpoint.chk"
 B after Tr=     0.000000    0.000000    0.000000
         Rot=    1.000000    0.000000   -0.000000    0.000000 Ang=   0.00 deg.
 Keep R1 ints in memory in canonical form, NReq=40166078.
 Requested convergence on RMS density matrix=1.00D-08 within 128 cycles.
 Requested convergence on MAX density matrix=1.00D-06.
 Requested convergence on             energy=1.00D-06.
 No special actions if energy rises.
 SCF Done:  E(RM06) =  -641.029580920     A.U. after    1 cycles
            NFock=  1  Conv=0.55D-09     -V/T= 2.0025
 DoSCS=F DFT=T ScalE2(SS,OS)=  1.000000  1.000000
 Range of M.O.s used for correlation:     1   130
 NBasis=   130 NAE=    21 NBE=    21 NFC=     0 NFV=     0
 NROrb=    130 NOA=    21 NOB=    21 NVA=   109 NVB=   109
   1 Symmetry operations used in ECPInt.
 ECPInt:  NShTT=    1081 NPrTT=    3930 LenC2=    1067 LenP2D=    3186.
 LDataN:  DoStor=T MaxTD1= 7 Len=  274
 Symmetrizing basis deriv contribution to polar:
 IMax=3 JMax=2 DiffMx= 0.00D+00
 G2DrvN: will do     5 centers at a time, making    1 passes.
 Calling FoFCou, ICntrl=  3107 FMM=F I1Cent=   0 AccDes= 0.00D+00.
 End of G2Drv F.D. properties file   721 does not exist.
 End of G2Drv F.D. properties file   722 does not exist.
 End of G2Drv F.D. properties file   788 does not exist.
          IDoAtm=1111
          Differentiating once with respect to electric field.
                with respect to dipole field.
          Differentiating once with respect to nuclear coordinates.
 Keep R1 ints in memory in canonical form, NReq=40160833.
          There are    15 degrees of freedom in the 1st order CPHF.  IDoFFX=6 NUNeed=     3.
     12 vectors produced by pass  0 Test12= 1.53D-14 6.67D-09 XBig12= 1.57D+01 3.14D+00.
 AX will form    12 AO Fock derivatives at one time.
     12 vectors produced by pass  1 Test12= 1.53D-14 6.67D-09 XBig12= 2.02D+00 5.63D-01.
     12 vectors produced by pass  2 Test12= 1.53D-14 6.67D-09 XBig12= 3.15D-02 4.33D-02.
     12 vectors produced by pass  3 Test12= 1.53D-14 6.67D-09 XBig12= 5.75D-04 6.28D-03.
     12 vectors produced by pass  4 Test12= 1.53D-14 6.67D-09 XBig12= 4.06D-06 5.04D-04.
     12 vectors produced by pass  5 Test12= 1.53D-14 6.67D-09 XBig12= 3.16D-08 4.50D-05.
      9 vectors produced by pass  6 Test12= 1.53D-14 6.67D-09 XBig12= 3.14D-10 3.89D-06.
      4 vectors produced by pass  7 Test12= 1.53D-14 6.67D-09 XBig12= 1.01D-12 2.41D-07.
      1 vectors produced by pass  8 Test12= 1.53D-14 6.67D-09 XBig12= 3.13D-15 1.21D-08.
 InvSVY:  IOpt=1 It=  1 EMax= 1.33D-15
 Solved reduced A of dimension    86 with    12 vectors.
 Isotropic polarizability for W=    0.000000       22.35 Bohr**3.
 End of Minotr F.D. properties file   721 does not exist.
 End of Minotr F.D. properties file   722 does not exist.
 End of Minotr F.D. properties file   788 does not exist.

 **********************************************************************

            Population analysis using the SCF Density.

 **********************************************************************

 Orbital symmetries:
       Occupied  (A) (A) (A) (A) (A) (A) (A) (A) (A) (A) (A) (A)
                 (A) (A) (A) (A) (A) (A) (A) (A) (A)
       Virtual   (A) (A) (A) (A) (A) (A) (A) (A) (A) (A) (A) (A)
                 (A) (A) (A) (A) (A) (A) (A) (A) (A) (A) (A) (A)
                 (A) (A) (A) (A) (A) (A) (A) (A) (A) (A) (A) (A)
                 (A) (A) (A) (A) (A) (A) (A) (A) (A) (A) (A) (A)
                 (A) (A) (A) (A) (A) (A) (A) (A) (A) (A) (A) (A)
                 (A) (A) (A) (A) (A) (A) (A) (A) (A) (A) (A) (A)
                 (A) (A) (A) (A) (A) (A) (A) (A) (A) (A) (A) (A)
                 (A) (A) (A) (A) (A) (A) (A) (A) (A) (A) (A) (A)
                 (A) (A) (A) (A) (A) (A) (A) (A) (A) (A) (A) (A)
                 (A)
 The electronic state is 1-A.
 Alpha  occ. eigenvalues --  -77.38360 -24.81357 -24.81356 -24.81356  -6.78729
 Alpha  occ. eigenvalues --   -4.90854  -4.90854  -4.90073  -1.32241  -1.27160
 Alpha  occ. eigenvalues --   -1.27158  -0.69851  -0.58715  -0.58714  -0.55097
 Alpha  occ. eigenvalues --   -0.51436  -0.51436  -0.47406  -0.47405  -0.46004
 Alpha  occ. eigenvalues --   -0.33666
 Alpha virt. eigenvalues --   -0.00249  -0.00249   0.10846   0.22009   0.22010
 Alpha virt. eigenvalues --    0.22732   0.25578   0.36710   0.36712   0.36744
 Alpha virt. eigenvalues --    0.43803   0.43804   0.54049   0.54284   0.54286
 Alpha virt. eigenvalues --    0.61027   0.64480   0.64481   0.66136   0.73150
 Alpha virt. eigenvalues --    0.73152   0.85809   0.85814   0.92444   1.12195
 Alpha virt. eigenvalues --    1.12204   1.14797   1.18835   1.18838   1.26604
 Alpha virt. eigenvalues --    1.29684   1.36563   1.36571   1.45510   1.48025
 Alpha virt. eigenvalues --    1.48027   1.69061   1.89464   1.89475   1.96059
 Alpha virt. eigenvalues --    1.96060   2.00655   2.12491   2.12492   2.21734
 Alpha virt. eigenvalues --    2.46886   2.47433   2.47442   2.48123   2.58100
 Alpha virt. eigenvalues --    2.58101   2.58927   2.67109   2.67115   3.27383
 Alpha virt. eigenvalues --    3.31948   3.31949   3.32741   3.40574   3.40583
 Alpha virt. eigenvalues --    3.63791   3.76772   3.76774   4.05289   4.08295
 Alpha virt. eigenvalues --    4.08304   6.65806   6.65807   6.69387   6.81806
 Alpha virt. eigenvalues --    6.83053   6.83054   6.85071   6.85072   6.85421
 Alpha virt. eigenvalues --    6.85511   6.85512   6.85762   6.85764   6.85949
 Alpha virt. eigenvalues --    6.93895   6.95779   6.96772   6.97348   6.97351
 Alpha virt. eigenvalues --    6.99739   6.99739   7.62890   7.90967   7.90979
 Alpha virt. eigenvalues --    8.30627   8.30629   8.35054   8.39948   8.39948
 Alpha virt. eigenvalues --    8.40496   8.56940   8.57532   8.57533   8.72892
 Alpha virt. eigenvalues --    8.74674   8.81409   8.81413   8.95079   8.95084
 Alpha virt. eigenvalues --   15.13945  56.69887  56.69888  56.85694
          Condensed to atoms (all electrons):
               1          2          3          4
     1  P   13.601455   0.216863   0.216853   0.216682
     2  F    0.216863   9.069956  -0.018715  -0.018692
     3  F    0.216853  -0.018715   9.069957  -0.018696
     4  F    0.216682  -0.018692  -0.018696   9.070041
 Mulliken charges:
               1
     1  P    0.748147
     2  F   -0.249413
     3  F   -0.249399
     4  F   -0.249336
 Sum of Mulliken charges =  -0.00000
 Mulliken charges with hydrogens summed into heavy atoms:
               1
     1  P    0.748147
     2  F   -0.249413
     3  F   -0.249399
     4  F   -0.249336
 APT charges:
               1
     1  P    1.840739
     2  F   -0.613633
     3  F   -0.613071
     4  F   -0.614034
 Sum of APT charges =  -0.00000
 APT charges with hydrogens summed into heavy atoms:
               1
     1  P    1.840739
     2  F   -0.613633
     3  F   -0.613071
     4  F   -0.614034
 Electronic spatial extent (au):  <R**2>=            259.8104
 Charge=             -0.0000 electrons
 Dipole moment (field-independent basis, Debye):
    X=              0.0002    Y=              0.0001    Z=              1.0661  Tot=              1.0661
 Quadrupole moment (field-independent basis, Debye-Ang):
   XX=            -27.5435   YY=            -27.5433   ZZ=            -26.7279
   XY=              0.0000   XZ=             -0.0001   YZ=             -0.0001
 Traceless Quadrupole moment (field-independent basis, Debye-Ang):
   XX=             -0.2720   YY=             -0.2717   ZZ=              0.5437
   XY=              0.0000   XZ=             -0.0001   YZ=             -0.0001
 Octapole moment (field-independent basis, Debye-Ang**2):
  XXX=             -1.9082  YYY=              1.1474  ZZZ=             -8.4304  XYY=              1.9085
  XXY=             -1.1472  XXZ=             -0.7443  XZZ=             -0.0004  YZZ=             -0.0003
  YYZ=             -0.7444  XYZ=              0.0000
 Hexadecapole moment (field-independent basis, Debye-Ang**3):
 XXXX=           -104.5040 YYYY=           -104.4976 ZZZZ=            -53.9188 XXXY=              0.0000
 XXXZ=              0.0246 YYYX=             -0.0000 YYYZ=             -0.0148 ZZZX=             -0.0004
 ZZZY=             -0.0005 XXYY=            -34.8336 XXZZ=            -24.8097 YYZZ=            -24.8083
 XXYZ=              0.0146 YYXZ=             -0.0245 ZZXY=             -0.0000
 N-N= 1.914297681597D+02 E-N=-1.910471727561D+03  KE= 6.394621623202D+02
  Exact polarizability:      23.527       0.006      23.538      -0.012       0.013      19.973
 Approx polarizability:      31.968      -0.000      31.967      -0.000      -0.000      24.269
   1 Symmetry operations used in ECPInt.
 ECPInt:  NShTT=    1081 NPrTT=    3930 LenC2=    1067 LenP2D=    3186.
 LDataN:  DoStor=T MaxTD1= 8 Len=  415
 Calling FoFJK, ICntrl=    100127 FMM=F ISym2X=0 I1Cent= 0 IOpClX= 0 NMat=1 NMatS=1 NMatT=0.
 Full mass-weighted force constant matrix:
 Low frequencies ---  -11.0735  -10.2514   -0.0037   -0.0028    0.0016   15.4429
 Low frequencies ---  347.2822  347.5535  489.8847
 Diagonal vibrational polarizability:
        8.4892497       8.4911377       8.0584432
 Harmonic frequencies (cm**-1), IR intensities (KM/Mole), Raman scattering
 activities (A**4/AMU), depolarization ratios for plane and unpolarized
 incident light, reduced masses (AMU), force constants (mDyne/A),
 and normal coordinates:
                      1                      2                      3
                      A                      A                      A
 Frequencies --    347.2812               347.5534               489.8839
 Red. masses --     19.8137                19.8145                21.1107
 Frc consts  --      1.4079                 1.4102                 2.9850
 IR Inten    --      4.8380                 4.8419                27.7561
  Atom  AN      X      Y      Z        X      Y      Z        X      Y      Z
     1  15    -0.03  -0.26   0.00    -0.26   0.03   0.00    -0.00   0.00   0.42
     2   9    -0.27  -0.30   0.16     0.58  -0.30   0.04     0.16   0.44  -0.23
     3   9     0.54   0.12  -0.11     0.17   0.51   0.12     0.31  -0.36  -0.23
     4   9    -0.22   0.61  -0.05    -0.33  -0.26  -0.16    -0.46  -0.08  -0.23
                      4                      5                      6
                      A                      A                      A
 Frequencies --    865.4519               865.8494               904.9038
 Red. masses --     22.6767                22.6761                22.3626
 Frc consts  --     10.0073                10.0162                10.7889
 IR Inten    --    206.3477               206.3763               150.4983
  Atom  AN      X      Y      Z        X      Y      Z        X      Y      Z
     1  15     0.46  -0.32   0.00     0.32   0.46  -0.00     0.00   0.00   0.53
     2   9     0.04   0.15   0.09    -0.19  -0.53  -0.33    -0.13  -0.38  -0.29
     3   9    -0.37   0.43  -0.33     0.09  -0.13   0.09    -0.26   0.30  -0.29
     4   9    -0.41  -0.06   0.24    -0.41  -0.09   0.25     0.39   0.07  -0.29

 -------------------
 - Thermochemistry -
 -------------------
 Temperature   298.150 Kelvin.  Pressure   1.00000 Atm.
 Atom     1 has atomic number 15 and mass  30.97376
 Atom     2 has atomic number  9 and mass  18.99840
 Atom     3 has atomic number  9 and mass  18.99840
 Atom     4 has atomic number  9 and mass  18.99840
 Molecular mass:    87.96897 amu.
 Principal axes and moments of inertia in atomic units:
                           1         2         3
     Eigenvalues --   231.47980 231.49479 375.85820
           X            1.00000   0.00000   0.00000
           Y           -0.00000   1.00000   0.00000
           Z           -0.00000  -0.00000   1.00000
 This molecule is an asymmetric top.
[...]


 GradGradGradGradGradGradGradGradGradGradGradGradGradGradGradGradGradGrad
 Berny optimization.
 Internal  Forces:  Max     0.000044416 RMS     0.000021466
 Search for a local minimum.
 Step number   1 out of a maximum of    2
 All quantities printed in internal units (Hartrees-Bohrs-Radians)
 Second derivative matrix not updated -- analytic derivatives used.
 The second derivative matrix:
                          R1        R2        R3        A1        A2
           R1           0.34588
           R2           0.02524   0.34541
           R3           0.02520   0.02524   0.34577
           A1           0.01127   0.01131  -0.00570   0.08254
           A2           0.02342  -0.00610   0.02551  -0.01131   0.33076
           A3          -0.00593   0.02332   0.02573  -0.01120   0.04586
           D1           0.01413   0.01412   0.00190   0.08077   0.04512
                          A3        D1
           A3           0.33063
           D1           0.04521   0.09593
 ITU=  0
     Eigenvalues ---    0.16139   0.26827   0.31732   0.33697   0.36011
     Eigenvalues ---    0.43286
 Angle between quadratic step and forces=  22.36 degrees.
 Linear search not attempted -- first point.
 Iteration  1 RMS(Cart)=  0.00010038 RMS(Int)=  0.00000001
 Iteration  2 RMS(Cart)=  0.00000000 RMS(Int)=  0.00000000
 Variable       Old X    -DE/DX   Delta X   Delta X   Delta X     New X
                                 (Linear)    (Quad)   (Total)
    R1        2.96063   0.00001   0.00000  -0.00000  -0.00000   2.96062
    R2        2.96060   0.00000   0.00000  -0.00002  -0.00002   2.96059
    R3        2.96054   0.00004   0.00000   0.00013   0.00013   2.96068
    A1        1.69964   0.00002   0.00000   0.00015   0.00015   1.69979
    A2        1.69971  -0.00000   0.00000  -0.00003  -0.00003   1.69968
    A3        1.69975   0.00000   0.00000  -0.00002  -0.00002   1.69973
    D1        1.71879   0.00002   0.00000   0.00015   0.00015   1.71894
         Item               Value     Threshold  Converged?
 Maximum Force            0.000044     0.000450     YES
 RMS     Force            0.000021     0.000300     YES
 Maximum Displacement     0.000153     0.001800     YES
 RMS     Displacement     0.000100     0.001200     YES
 Predicted change in Energy=-6.746524D-09
 Optimization completed.
    -- Stationary point found.
                           ----------------------------
                           !   Optimized Parameters   !
                           ! (Angstroms and Degrees)  !
 --------------------------                            --------------------------
 ! Name  Definition              Value          Derivative Info.                !
 --------------------------------------------------------------------------------
 ! R1    R(1,2)                  1.5667         -DE/DX =    0.0                 !
 ! R2    R(1,3)                  1.5667         -DE/DX =    0.0                 !
 ! R3    R(1,4)                  1.5667         -DE/DX =    0.0                 !
 ! A1    A(2,1,3)               97.3822         -DE/DX =    0.0                 !
 ! A2    A(2,1,4)               97.3864         -DE/DX =    0.0                 !
 ! A3    A(3,1,4)               97.3886         -DE/DX =    0.0                 !
 ! D1    D(2,1,4,3)             98.4797         -DE/DX =    0.0                 !
 --------------------------------------------------------------------------------
 GradGradGradGradGradGradGradGradGradGradGradGradGradGradGradGradGradGrad


 ----------------------------------------------------------------------

 Electric dipole moment (input orientation):
 (Debye = 10**-18 statcoulomb cm , SI units = C m)
                  (au)            (Debye)         (10**-30 SI)
   Tot        0.419425D+00      0.106607D+01      0.355603D+01
   x         -0.139879D+00     -0.355536D+00     -0.118594D+01
   y          0.195862D+00      0.497831D+00      0.166059D+01
   z         -0.343496D+00     -0.873079D+00     -0.291228D+01

 Dipole polarizability, Alpha (input orientation).
 (esu units = cm**3 , SI units = C**2 m**2 J**-1)
 Alpha(0;0):
               (au)            (10**-24 esu)      (10**-40 SI)
   iso        0.223459D+02      0.331132D+01      0.368434D+01
   aniso      0.355965D+01      0.527486D+00      0.586908D+00
   xx         0.231491D+02      0.343034D+01      0.381676D+01
   yx         0.548481D+00      0.812764D-01      0.904322D-01
   yy         0.227616D+02      0.337292D+01      0.375288D+01
   zx        -0.970903D+00     -0.143873D+00     -0.160080D+00
   zy         0.135222D+01      0.200378D+00      0.222951D+00
   zz         0.211270D+02      0.313071D+01      0.348338D+01

 ----------------------------------------------------------------------

 Dipole orientation:
    15         -0.45370321         -3.27389810          2.50454099
     9          2.10344381         -3.50712174          1.03079939
     9         -1.93459334         -5.37184456          1.03119291
     9         -1.53048301         -0.94228725          1.03180869

 Electric dipole moment (dipole orientation):
 (Debye = 10**-18 statcoulomb cm , SI units = C m)
                  (au)            (Debye)         (10**-30 SI)
   Tot        0.419425D+00      0.106607D+01      0.355603D+01
   x          0.000000D+00      0.000000D+00      0.000000D+00
   y          0.000000D+00      0.000000D+00      0.000000D+00
   z          0.419425D+00      0.106607D+01      0.355603D+01

 Dipole polarizability, Alpha (dipole orientation).
 (esu units = cm**3 , SI units = C**2 m**2 J**-1)
 Alpha(0;0):
               (au)            (10**-24 esu)      (10**-40 SI)
   iso        0.223459D+02      0.331132D+01      0.368434D+01
   aniso      0.355965D+01      0.527486D+00      0.586908D+00
   xx         0.235403D+02      0.348831D+01      0.388127D+01
   yx        -0.215481D-02     -0.319309D-03     -0.355279D-03
   yy         0.235245D+02      0.348598D+01      0.387867D+01
   zx        -0.982662D-02     -0.145616D-02     -0.162019D-02
   zy        -0.144949D-01     -0.214792D-02     -0.238988D-02
   zz         0.199729D+02      0.295968D+01      0.329309D+01

 ----------------------------------------------------------------------
 Unable to Open any file for archive entry.
 1\1\GINC-GADI-CPU-CLX-1411\Freq\RM06\def2TZVP\F3P1\PK8622\23-Jun-2020\
 0\\#N Geom=AllCheck Guess=TCheck SCRF=Check GenChk RM06/def2TZVP Freq\
 \Anharmonic frequencies for phosphorous trifluoride using VPT2\\0,1\P,
 -0.5190815174,2.1231245122,-0.1963207089\F,1.0220148395,1.9834211241,0
 .0487126451\F,-0.8997464438,2.6690348311,1.2219788265\F,-0.8997768782,
 0.6244895325,0.0557892373\\Version=ES64L-G16RevC.01\State=1-A\HF=-641.
 0295809\RMSD=5.539e-10\RMSF=2.144e-05\ZeroPoint=0.0087047\Thermal=0.01
 26731\ETot=-641.0169078\HTot=-641.0159636\GTot=-641.0479619\Dipole=-0.
 1398787,0.1958619,-0.3434956\DipoleDeriv=1.8407872,-0.0008045,-0.00005
 48,-0.0005075,1.8404257,-0.0000377,0.0008869,-0.0011263,1.8410038,-1.2
 159717,0.0417885,-0.0716541,0.1893446,-0.2806889,0.0528916,-0.3314967,
 0.0531266,-0.3442391,-0.3119533,0.0873816,0.0974903,0.0882925,-0.37634
 7,-0.1425513,0.2696917,-0.3860113,-1.1509135,-0.3128622,-0.1283656,-0.
 0257813,-0.2771296,-1.1833898,0.0896974,0.0609181,0.3340109,-0.3458513
 \Polar=23.1490603,0.5484806,22.7616015,-0.970903,1.3522173,21.127049\Q
 uadrupole=-0.1347485,-0.0698185,0.2045669,-0.0944009,0.1653908,-0.2320
 291\PG=C01 [X(F3P1)]\NImag=0\\0.39073757,-0.00970699,0.39695261,0.0172
 7253,-0.02394631,0.42562843,-0.30084920,0.03339708,-0.05848879,0.33995
 564,0.04617968,-0.04119744,0.01830586,-0.02164641,0.03944969,-0.080849
 29,0.01828558,-0.06283324,0.03792994,-0.00366625,0.04374121,-0.0449973
 9,0.02023170,0.03888490,-0.01960524,0.00990417,0.03410127,0.05912573,0
 .02030407,-0.05951413,-0.05643467,0.00991558,0.00159481,-0.01039816,-0
 .03107767,0.08156517,0.05376698,-0.07743628,-0.29947169,0.01929891,-0.
 00509684,0.00880973,-0.07146592,0.10235135,0.28163503,-0.04489097,-0.0
 4392178,0.00233135,-0.01950120,-0.03443743,0.00881808,0.00547690,0.000
 85802,-0.00159996,0.05891528,-0.05677675,-0.29624104,0.06207513,-0.021
 66625,0.00015294,-0.00422117,0.00094181,-0.02364585,-0.01981823,0.0775
 0120,0.31973395,0.00980978,0.08309701,-0.06332350,0.00125994,-0.009542
 77,0.01028231,-0.00152025,-0.03551851,0.00902693,-0.00954947,-0.038035
 73,0.04401425\\-0.00001505,-0.00004352,-0.00001372,-0.00000567,-0.0000
 0536,0.00002010,0.00001928,0.00000109,0.00000237,0.00000145,0.00004779
 ,-0.00000875\\-0.00717851,-0.01707691,0.01664308,0.01724217,0.01514683
 ,-0.00898399,-0.00445897,0.00287272,0.00144294,0.01319467,0.00654366,-
 0.00282019,-0.00051023,-0.00081586,0.00763706,-0.00195018,-0.00113744,
 0.00077705,-0.00033303,0.00229855,-0.00048166,0.00553668,-0.00104844,-
 0.01231546,-0.00201525,0.00260333,0.00291844,-0.00068642,0.00012119,-0
 .00444912,-0.00946470,0.00289820,-0.00075270,-0.00111286,-0.00240140,-
 0.00774361,-0.01003559,-0.00375140,0.00418629,0.00107787,-0.00201398,-
 0.00136485,0.00847558,0.00051463,-0.00662298,0.00610079,0.01525262,-0.
 00636965,-0.00672045,-0.00833113,-0.00063523,-0.00283501,-0.00061800,0
 .00048214,0.00345467,0.01041206,-0.00937378,-0.00517190,-0.00495506,-0
 .00406417,-0.00004825,0.00084651,0.01294543,0.00525075,-0.00630350,0.0
 0049252,-0.00525640,-0.01025800,0.00402065,-0.00218779,0.00022567,0.00
 106947,0.00092144,0.01006292,0.00380154,0.00652275,-0.00003059,-0.0088
 9165,-0.00352806,0.02225410,-0.00742926,0.01892660,0.01001674,0.008178
 11,0.00045238,-0.01233985,-0.00712130,0.00151059,-0.01748513,0.0037701
 2,-0.00407637,0.00376489,-0.00736461,-0.01134094,-0.00130693,-0.003957
 29,0.00218478,0.00587084,0.00890342,0.00362167,-0.00370383,-0.01226496
 ,-0.01108068,0.00549269,0.00965092,0.00811477,-0.00258038,-0.00421944,
 -0.00774200,0.00394930,0.00117939,-0.00245295,0.00021133,0.00023247,-0
 .00620437,-0.00788081,-0.00316656,0.00503536,-0.00120524,-0.00376937,0
 .00276024,0.00771037,0.00586812,-0.00054599,-0.00621042,0.00045967,0.0
 0911772,0.00822755,-0.00049476,-0.00065575,-0.00158025,-0.00159122,-0.
 00791597,-0.00218859,0.00787858,0.00180163,0.00462566,0.00241509,-0.00
 211097,-0.00200020,0.00280758,0.00137568,-0.00043688,-0.01310126,-0.00
 138128,-0.00082900,-0.00105427,-0.00009884,-0.00058923,-0.00117676,-0.
 00014619,0.00248458,0.00106781,0.00162631,-0.00106635,0.00116323,-0.00
 556597,0.00506710,-0.01063407,-0.00927258,0.01329267,-0.02560760,0.009
 53141,-0.00423877,0.00828700,-0.03093626,-0.00708288,0.00111127,-0.001
 73236,0.00284841,-0.00587139,0.01325660,-0.00174737,0.00295066,-0.0057
 5840,-0.00001649,-0.00573337,-0.00223912,0.00259223,0.00212284,0.01070
 831,-0.00497102,-0.00783764,-0.00623950,0.00262522,-0.00328202,-0.0031
 8638,-0.00345860,-0.00079620,0.00306709,0.00120977,-0.00796573,-0.0011
 7970,0.00147733,0.01975890,-0.00366892,0.00250356,0.00465368,0.0059641
 9,-0.00823174,-0.02905043,-0.00172633,-0.00342056,-0.00113726,0.010696
 53,0.00920550,0.00033944,-0.00222969,-0.00037638,-0.00111557,-0.006740
 51,-0.00060944,0.01280481,-0.00837393,0.00484897,0.00555631,-0.0013032
 2,0.00116902,0.01204395,0.00425085,-0.00540855,-0.03040507,-0.00280432
 ,-0.01302263,0.00289803,0.00114031,-0.00075471,-0.00187097,-0.00024939
 ,0.00835103,0.00463785,0.00191340,0.00542631,-0.00566491,0.06992532,0.
 07603917,0.14902977,0.06933322,-0.12269134,-0.22257158,-0.06645017,-0.
 00353669,-0.01908888,0.06753188,0.00039206,0.00557281,0.00207703,0.005
 28249,-0.00450459,-0.01779771,0.00019586,0.00090640,0.02007491,-0.0013
 2952,-0.00228837,-0.00309420,-0.02357599,-0.05862228,0.00225781,-0.000
 66077,-0.00395543,0.00083717,-0.02374200,0.01216217,0.08194143,-0.0004
 2193,0.00018648,0.00158089,0.02400206,-0.01292779,-0.06137315,0.083823
 83,0.21686573,-0.00101749,0.00081683,0.00010199,0.06258729,-0.08525286
 ,-0.21741552,-0.00038096,-0.04892648,0.00837794,-0.00333952,-0.0050137
 9,0.00167822,-0.00000078,0.00016187,-0.00019665,0.00372125,-0.05268923
 ,-0.16676475,0.03867287,-0.00132387,-0.00125470,-0.00044723,0.00023470
 ,0.00057914,0.00061220,0.05377840,0.16744032,0.00983765,0.03867165,0.0
 0479946,0.00003146,-0.00156434,0.00127998,-0.00000959,0.00173053,0.000
 44780,-0.00985952,-0.03883784,-0.00652724,-0.26027186,0.06543709,0.201
 30337,-0.06211516,0.00263597,0.05933221,0.24896664,-0.02877456,0.04675
 918,-0.25334456,-0.02926937,-0.01550534,-0.00687003,0.02908709,0.01502
 570,0.05001282,-0.00738065,-0.00812157,-0.04647494,0.00552079,0.009009
 23,0.00565752,0.00493274,0.00970596,0.00286416,-0.00101618,-0.00353144
 ,-0.00848950,0.00410951,-0.00795477,-0.02637983,-0.00066412,0.00034454
 ,0.00158732,-0.00342330,0.01148615,0.00662536,-0.02961577,-0.05796929,
 -0.00065347,0.00065462,-0.00057433,-0.00657559,0.03031767,0.05805592,0
 .00564770,-0.04159528,0.00565002,0.00151375,0.00119846,-0.00000643,-0.
 00003218,-0.00002209,0.00060371,-0.00712928,-0.04027724,-0.17784325,0.
 03061389,0.00035159,0.00013510,0.00027254,-0.00049327,-0.00387592,-0.0
 0135653,0.04041891,0.18158406,0.00547699,0.03436044,0.00675865,0.00036
 924,0.00069462,-0.00031334,0.00040106,-0.00552516,0.00048770,-0.006247
 29,-0.02952990,-0.00693301,-0.17306846,-0.01250201,-0.15967418,0.01911
 616,-0.03013631,-0.12648233,0.17508926,-0.01222515,0.02328318,-0.18308
 870,-0.01710911,-0.01215798,-0.00430635,0.01133649,0.01155266,0.031801
 57,-0.00429016,-0.00696424,-0.02172024,0.00089504,0.01034342,-0.001004
 52,-0.01939330,-0.03889863,0.00399238,-0.00170458,-0.00767764,-0.00254
 666,-0.01942573,0.01305710,0.05682930,-0.00122781,0.00005473,0.0027641
 0,0.02076373,-0.01759603,-0.04456226,0.06480372,0.14037154,-0.00176974
 ,0.00094886,-0.00141248,0.04665202,-0.06770507,-0.13753287,-0.00101628
 ,0.04412046,-0.00350070,0.00400706,0.00747720,-0.00240370,-0.00044120,
 -0.00011019,-0.00032002,-0.00254957,0.04903684,0.15877506,-0.02238663,
 0.00211647,0.00055060,0.00063102,0.00033415,0.00448421,0.00195248,-0.0
 5148747,-0.16380987,-0.00635546,-0.03037725,-0.00692498,0.00020680,0.0
 0246245,-0.00196670,-0.00007575,0.00811167,-0.00142619,0.00622442,0.01
 980313,0.01031787,0.00037984,-0.00287452,-0.01541775,0.00211493,0.0010
 2480,-0.00854369,0.00189389,-0.00017428,0.00014867,-0.00080512,-0.0007
 1096,0.00060015,-0.00050697,0.00149018,0.00134511,0.00071910,-0.000385
 20,0.00044268,0.00051862,0.00095880,-0.00052724,-0.00050443,-0.0011922
 6,-0.00215735,0.00032513,0.00030725,-0.00034844,-0.00086459,-0.0012045
 2,0.00020159,0.00182014,0.00030313,-0.00050417,-0.00014930,0.00149444,
 0.00501880,-0.00248327,0.00316055,0.00817518,-0.00015247,-0.00013332,-
 0.00021679,0.00240096,0.00048181,-0.00669120,-0.00176914,0.00424112,-0
 .00010634,-0.00141390,-0.00108647,-0.00088928,0.00104388,-0.00059304,0
 .00023479,0.00213913,0.00479006,0.01461613,-0.00233784,-0.00161903,-0.
 00144108,-0.00042430,-0.00060942,-0.00471623,-0.00350903,-0.00256160,-
 0.00845884,-0.00035084,-0.00380002,-0.00007421,-0.00051482,-0.00031851
 ,0.00030136,0.00010483,-0.00215265,-0.00126718,0.00076084,0.00627118,0
 .00104001,-0.01820557,0.00310453,-0.00035028,-0.00240354,-0.00112585,-
 0.00824940,0.01702376,-0.00177959,0.00276732,-0.01003983,-0.00240854,-
 0.00217463,-0.00141390,0.00210566,0.00169569,0.00428471,-0.00147050,0.
 00007694,-0.00661740,0.00194441,0.00069145,0.00078862,-0.00145162,-0.0
 0083220,-0.00426689,0.00115552,0.00190709,0.00377971,-0.00150060,0.000
 16903,0.00269887,0.00120607,0.00082993,-0.00076084,-0.00009953,-0.0012
 2293,-0.00199941,0.00332901,0.00790872,0.00313352,-0.00131088,-0.00129
 506,-0.00124352,-0.00231027,-0.00649685,0.00039324,0.00012680,0.000468
 37,-0.00271704,-0.00085264,0.00042560,-0.00030146,0.00039407,0.0001094
 2,0.00262526,0.00080473,0.00235610,-0.00015892,-0.00153213,-0.00035100
 ,0.00028694,0.00039563,0.00022396,0.00029214,0.00033177,-0.00222905,0.
 00011820,-0.00073246,0.00026365,0.00071656,0.00078038,0.00052665,0.000
 16864,0.00037223,-0.00011683,-0.00100339,-0.00042017,-0.00067346,-0.01
 474649,-0.00145348,-0.01394403,0.00303648,-0.00650402,-0.00727084,0.01
 098261,-0.00019514,-0.00069788,-0.00583027,-0.00156213,0.00001439,-0.0
 0007649,0.00183048,0.00063676,0.00188308,-0.00010527,0.00011065,-0.002
 47547,0.00040114,0.00034915,0.00240727,-0.00281253,-0.00299248,-0.0025
 1826,0.00152346,0.00119288,-0.00037458,-0.00280415,0.00215341,0.004107
 52,0.00112598,-0.00000405,0.00004199,0.00127311,0.00092618,-0.00482724
 ,0.00656772,0.00746961,0.00267399,-0.00076501,-0.00062998,0.00232893,-
 0.00304025,-0.00626280,0.00135679,0.00446119,0.00065382,-0.00263409,-0
 .00179182,-0.00060048,0.00048555,0.00040506,-0.00017567,0.00079172,0.0
 0581980,0.01177639,0.00247308,-0.00276133,-0.00064713,-0.00033785,0.00
 001597,-0.00307555,-0.00276246,-0.00307444,-0.00805374,-0.00009237,0.0
 0004166,-0.00030937,0.00049936,0.00044037,0.00017016,-0.00052932,-0.00
 110927,-0.00057685,0.00012234,0.00062723,0.00071604,0.01120115,0.02841
 161,0.17195427,-0.08754203,0.06799560,0.28539742,-0.01411802,-0.004204
 75,-0.00608375,0.01474765,-0.00357326,0.00190032,-0.00055364,0.0041080
 8,-0.00167612,-0.00611146,-0.00080449,0.00061062,0.00591224,0.00067786
 ,-0.00030266,0.00559986,0.02417664,0.08050204,-0.00026838,0.00001711,-
 0.00008018,-0.00552888,0.02464484,-0.01560841,-0.11099257,-0.00007140,
 0.00001082,0.00005963,-0.02433465,0.01558025,0.08048442,-0.10981572,-0
 .29133874,0.00014468,0.00000777,-0.00032955,-0.08030517,0.11023631,0.2
 9195652,-0.00268317,-0.04838339,0.01312372,-0.00036125,-0.00055194,0.0
 0027939,0.00019738,-0.00023879,-0.00032393,0.00284703,-0.04948308,-0.1
 5824618,0.04355078,0.00016807,-0.00023503,0.00006700,0.00014089,0.0000
 1732,-0.00042836,0.04917412,0.15846389,0.01316905,0.04262478,0.0053304
 1,0.00002683,-0.00013199,0.00002159,-0.00011669,0.00069663,-0.00028826
 ,-0.01307919,-0.04318942,-0.00506375,0.27878288,-0.00180945,0.15804711
 ,0.04466179,-0.02929080,-0.00734842,-0.29032870,0.03644127,-0.05198312
 ,0.29105268,0.03511788,0.02068107,0.00497838,-0.03555808,-0.01999854,-
 0.05213256,0.00502876,0.01508599,0.05244275,-0.00507451,-0.01471570,0.
 00334503,-0.00052338,-0.00044867,0.00012446,0.00030271,-0.00004303,-0.
 00334539,-0.00040752,-0.00294532,-0.00819146,0.00006311,-0.00009353,-0
 .00007731,0.00028002,0.00345735,-0.00018592,-0.00892700,-0.01574603,-0
 .00047126,-0.00024324,-0.00026311,0.00045375,0.00891972,0.01611229,0.0
 0820084,-0.03410837,0.00776999,-0.00084844,0.00013749,-0.00026717,-0.0
 0012411,0.00006439,0.00020344,-0.00722830,-0.03290084,-0.17578270,0.03
 250399,-0.00094629,-0.00058901,0.00012306,-0.00005936,-0.00041851,0.00
 025053,0.03390648,0.17679020,0.00765667,0.03318916,0.00800844,0.000011
 63,0.00033937,-0.00010718,0.00003796,-0.00065094,-0.00010315,-0.007706
 26,-0.03287760,-0.00779811,0.13906187,0.02427046,0.14815445,-0.0401844
 0,0.04539641,0.08952102,-0.13164415,0.00170350,-0.00485482,0.13318560,
 0.00320628,0.01249890,-0.00187706,-0.00204577,-0.01192582,-0.00794992,
 -0.00187010,0.01284712,0.00579638,0.00242479,-0.01282132,-0.00307701,0
 .01861128,0.04091425,-0.00072876,0.00036407,0.00162330,0.00389831,0.01
 881556,-0.01844379,-0.05686518,-0.00017543,-0.00010195,-0.00069297,-0.
 01874067,0.01941445,0.04302362,-0.05952794,-0.11114506,-0.00074305,-0.
 00011980,-0.00023682,-0.04259579,0.05926116,0.11146472,-0.00434055,-0.
 04458517,0.00412493,-0.00081270,-0.00152458,0.00053024,-0.00009257,0.0
 0010054,0.00031524,0.00524581,-0.04629224,-0.14220933,0.01334594,0.000
 51770,-0.00047114,0.00013828,-0.00023468,-0.00086871,0.00038658,0.0460
 0921,0.14354918,0.00511066,0.01600175,0.00877698,-0.00019851,-0.000427
 93,0.00021100,0.00005825,-0.00170302,-0.00008285,-0.00497040,-0.013870
 80,-0.00890513\\@
 The archive entry for this job was punched.


 Just remember, when you're over the hill, you begin to pick up speed.
 -- Charles Schulz
 Job cpu time:       0 days  0 hours 51 minutes  6.0 seconds.
 Elapsed time:       0 days  0 hours 12 minutes 51.1 seconds.
 File lengths (MBytes):  RWF=     52 Int=      0 D2E=      0 Chk=     76 Scr=      1
 Normal termination of Gaussian 16 at Tue Jun 23 17:39:22 2020.
