 Entering Gaussian System, Link 0=g16
 Input=phosphine.gjf
 Output=phosphine.log
 Initial command:
 /apps/gaussian/g16c01/g16/l1.exe "/jobfs/7627943.gadi-pbs/Gau-56744.inp" -scrdir="/jobfs/7627943.gadi-pbs/"
 Entering Link 1 = /apps/gaussian/g16c01/g16/l1.exe PID=     56745.
  
 Copyright (c) 1988-2019, Gaussian, Inc.  All Rights Reserved.
  
 This is part of the Gaussian(R) 16 program.  It is based on
 the Gaussian(R) 09 system (copyright 2009, Gaussian, Inc.),
 the Gaussian(R) 03 system (copyright 2003, Gaussian, Inc.),
 the Gaussian(R) 98 system (copyright 1998, Gaussian, Inc.),
 the Gaussian(R) 94 system (copyright 1995, Gaussian, Inc.),
 the Gaussian 92(TM) system (copyright 1992, Gaussian, Inc.),
 the Gaussian 90(TM) system (copyright 1990, Gaussian, Inc.),
 the Gaussian 88(TM) system (copyright 1988, Gaussian, Inc.),
 the Gaussian 86(TM) system (copyright 1986, Carnegie Mellon
 University), and the Gaussian 82(TM) system (copyright 1983,
 Carnegie Mellon University). Gaussian is a federally registered
 trademark of Gaussian, Inc.
  
 This software contains proprietary and confidential information,
 including trade secrets, belonging to Gaussian, Inc.
  
 This software is provided under written license and may be
 used, copied, transmitted, or stored only in accord with that
 written license.
  
 The following legend is applicable only to US Government
 contracts under FAR:
  
                    RESTRICTED RIGHTS LEGEND
  
 Use, reproduction and disclosure by the US Government is
 subject to restrictions as set forth in subparagraphs (a)
 and (c) of the Commercial Computer Software - Restricted
 Rights clause in FAR 52.227-19.
  
 Gaussian, Inc.
 340 Quinnipiac St., Bldg. 40, Wallingford CT 06492
  
  
 ---------------------------------------------------------------
 Warning -- This program may not be used in any manner that
 competes with the business of Gaussian, Inc. or will provide
 assistance to any competitor of Gaussian, Inc.  The licensee
 of this program is prohibited from giving any competitor of
 Gaussian, Inc. access to this program.  By using this program,
 the user acknowledges that Gaussian, Inc. is engaged in the
 business of creating and licensing software in the field of
 computational chemistry and represents and warrants to the
 licensee that it is not a competitor of Gaussian, Inc. and that
 it will not use this program in any manner prohibited above.
 ---------------------------------------------------------------
  

 Cite this work as:
 Gaussian 16, Revision C.01,
 M. J. Frisch, G. W. Trucks, H. B. Schlegel, G. E. Scuseria, 
 M. A. Robb, J. R. Cheeseman, G. Scalmani, V. Barone, 
 G. A. Petersson, H. Nakatsuji, X. Li, M. Caricato, A. V. Marenich, 
 J. Bloino, B. G. Janesko, R. Gomperts, B. Mennucci, H. P. Hratchian, 
 J. V. Ortiz, A. F. Izmaylov, J. L. Sonnenberg, D. Williams-Young, 
 F. Ding, F. Lipparini, F. Egidi, J. Goings, B. Peng, A. Petrone, 
 T. Henderson, D. Ranasinghe, V. G. Zakrzewski, J. Gao, N. Rega, 
 G. Zheng, W. Liang, M. Hada, M. Ehara, K. Toyota, R. Fukuda, 
 J. Hasegawa, M. Ishida, T. Nakajima, Y. Honda, O. Kitao, H. Nakai, 
 T. Vreven, K. Throssell, J. A. Montgomery, Jr., J. E. Peralta, 
 F. Ogliaro, M. J. Bearpark, J. J. Heyd, E. N. Brothers, K. N. Kudin, 
 V. N. Staroverov, T. A. Keith, R. Kobayashi, J. Normand, 
 K. Raghavachari, A. P. Rendell, J. C. Burant, S. S. Iyengar, 
 J. Tomasi, M. Cossi, J. M. Millam, M. Klene, C. Adamo, R. Cammi, 
 J. W. Ochterski, R. L. Martin, K. Morokuma, O. Farkas, 
 J. B. Foresman, and D. J. Fox, Gaussian, Inc., Wallingford CT, 2019.
 
 ******************************************
 Gaussian 16:  ES64L-G16RevC.01  3-Jul-2019
                23-Jun-2020 
 ******************************************
 %NprocShared=4
 Will use up to    4 processors via shared memory.
 %chk=checkpoint.chk
 -------------------------------------------------------
 # M06/Def2TZVP Freq=(anharmonic,ReadAnharm) Opt=CalcAll
 -------------------------------------------------------
 1/10=4,18=20,19=15,26=3,38=1,80=1/1,3;
 2/9=110,12=2,17=6,18=5,40=1/2;
 3/5=44,7=101,11=2,25=1,30=1,71=2,74=-54,140=1/1,2,3;
 4//1;
 5/5=2,38=5/2;
 8/6=4,10=90,11=11/1;
 11/6=1,8=1,9=11,15=111,16=1/1,2,10;
 10/6=1/2;
 6/7=2,8=2,9=2,10=2,18=1,28=1/1;
 7/10=1,25=1/1,2,3,16;
 1/10=4,18=20,19=15,26=3,80=1/3(3);
 2/9=110/2;
 7/8=1,9=1,25=1,44=-1,71=2,72=1/16;
 99//99;
 2/9=110/2;
 3/5=44,7=101,11=2,25=1,30=1,71=2,74=-54,140=1/1,2,3;
 4/5=5,16=3,69=1/1;
 5/5=2,38=5/2;
 8/6=4,10=90,11=11/1;
 11/6=1,8=1,9=11,15=111,16=1/1,2,10;
 10/6=1/2;
 7/10=1,25=1/1,2,3,16;
 1/10=4,18=20,19=15,26=3,80=1/3(-8);
 2/9=110/2;
 6/7=2,8=2,9=2,10=2,18=1,19=2,28=1/1;
 7/8=1,9=1,25=1,44=-1,71=1,72=1/16;
 99//99;
 -----------------------------------------------
 Anharmonic frequencies for phosphine using VPT2
 -----------------------------------------------
 Symbolic Z-matrix:
 Charge =  0 Multiplicity = 1
 P                    -0.06619   1.22605  -0.15895 
 H                     1.31493   1.03098   0.07917 
 H                    -0.38145   1.4545    1.20144 
 H                    -0.38145  -0.15269  -0.11518 
 

 GradGradGradGradGradGradGradGradGradGradGradGradGradGradGradGradGradGrad
 Berny optimization.
 Initialization pass.
                           ----------------------------
                           !    Initial Parameters    !
                           ! (Angstroms and Degrees)  !
 --------------------------                            --------------------------
 ! Name  Definition              Value          Derivative Info.                !
 --------------------------------------------------------------------------------
 ! R1    R(1,2)                  1.415          calculate D2E/DX2 analytically  !
 ! R2    R(1,3)                  1.415          calculate D2E/DX2 analytically  !
 ! R3    R(1,4)                  1.415          calculate D2E/DX2 analytically  !
 ! A1    A(2,1,3)               94.4697         calculate D2E/DX2 analytically  !
 ! A2    A(2,1,4)               94.4697         calculate D2E/DX2 analytically  !
 ! A3    A(3,1,4)               94.4698         calculate D2E/DX2 analytically  !
 ! D1    D(2,1,4,3)             94.8484         calculate D2E/DX2 analytically  !
 --------------------------------------------------------------------------------
 Trust Radius=3.00D-01 FncErr=1.00D-07 GrdErr=1.00D-06 EigMax=2.50D+02 EigMin=1.00D-04
 Number of steps in this run=     20 maximum allowed number of steps=    100.
 GradGradGradGradGradGradGradGradGradGradGradGradGradGradGradGradGradGrad

                          Input orientation:                          
 ---------------------------------------------------------------------
 Center     Atomic      Atomic             Coordinates (Angstroms)
 Number     Number       Type             X           Y           Z
 ---------------------------------------------------------------------
      1         15           0       -0.066190    1.226050   -0.158950
      2          1           0        1.314930    1.030980    0.079170
      3          1           0       -0.381450    1.454500    1.201440
      4          1           0       -0.381450   -0.152690   -0.115180
 ---------------------------------------------------------------------
                    Distance matrix (angstroms):
                    1          2          3          4
     1  P    0.000000
     2  H    1.415007   0.000000
     3  H    1.415005   2.077634   0.000000
     4  H    1.415001   2.077631   2.077630   0.000000
 Stoichiometry    H3P
 Framework group  C1[X(H3P)]
 Deg. of freedom     6
 Full point group                 C1      NOp   1
 Largest Abelian subgroup         C1      NOp   1
 Largest concise Abelian subgroup C1      NOp   1
                         Standard orientation:                         
 ---------------------------------------------------------------------
 Center     Atomic      Atomic             Coordinates (Angstroms)
 Number     Number       Type             X           Y           Z
 ---------------------------------------------------------------------
      1         15           0        0.000001    0.000001   -0.125098
      2          1           0       -1.099028   -0.480630    0.625485
      3          1           0        0.965742   -0.711474    0.625492
      4          1           0        0.133274    1.192087    0.625500
 ---------------------------------------------------------------------
 Rotational constants (GHZ):         135.5972798         135.5969179         116.1702210
 Standard basis: def2TZVP (5D, 7F)
 There are    60 symmetry adapted cartesian basis functions of A   symmetry.
 There are    55 symmetry adapted basis functions of A   symmetry.
    55 basis functions,    93 primitive gaussians,    60 cartesian basis functions
     9 alpha electrons        9 beta electrons
       nuclear repulsion energy        17.5930091842 Hartrees.
 NAtoms=    4 NActive=    4 NUniq=    4 SFac= 1.00D+00 NAtFMM=   60 NAOKFM=F Big=F
 Integral buffers will be    131072 words long.
 Raffenetti 2 integral format.
 Two-electron integral symmetry is turned on.
 One-electron integrals computed using PRISM.
   1 Symmetry operations used in ECPInt.
 ECPInt:  NShTT=     325 NPrTT=    1080 LenC2=     326 LenP2D=    1032.
 LDataN:  DoStor=T MaxTD1= 6 Len=  172
 NBasis=    55 RedAO= T EigKep=  1.36D-02  NBF=    55
 NBsUse=    55 1.00D-06 EigRej= -1.00D+00 NBFU=    55
 ExpMin= 9.04D-02 ExpMax= 5.24D+04 ExpMxC= 1.79D+03 IAcc=3 IRadAn=         5 AccDes= 0.00D+00
 Harris functional with IExCor= 1009 and IRadAn=       5 diagonalized for initial guess.
 HarFok:  IExCor= 1009 AccDes= 0.00D+00 IRadAn=         5 IDoV= 1 UseB2=F ITyADJ=14
 ICtDFT=  3500011 ScaDFX=  1.000000  1.000000  1.000000  1.000000
 FoFCou: FMM=F IPFlag=           0 FMFlag=      100000 FMFlg1=           0
         NFxFlg=           0 DoJE=T BraDBF=F KetDBF=T FulRan=T
         wScrn=  0.000000 ICntrl=       500 IOpCl=  0 I1Cent=   200000004 NGrid=           0
         NMat0=    1 NMatS0=      1 NMatT0=    0 NMatD0=    1 NMtDS0=    0 NMtDT0=    0
 Petite list used in FoFCou.
 Keep R1 ints in memory in canonical form, NReq=4730372.
 Requested convergence on RMS density matrix=1.00D-08 within 128 cycles.
 Requested convergence on MAX density matrix=1.00D-06.
 Requested convergence on             energy=1.00D-06.
 No special actions if energy rises.
 Integral accuracy reduced to 1.0D-05 until final iterations.
 Initial convergence to 1.0D-05 achieved.  Increase integral accuracy.
 SCF Done:  E(RM06) =  -343.133223317     A.U. after   11 cycles
            NFock= 11  Conv=0.65D-08     -V/T= 2.0022
 DoSCS=F DFT=T ScalE2(SS,OS)=  1.000000  1.000000
 Range of M.O.s used for correlation:     1    55
 NBasis=    55 NAE=     9 NBE=     9 NFC=     0 NFV=     0
 NROrb=     55 NOA=     9 NOB=     9 NVA=    46 NVB=    46
   1 Symmetry operations used in ECPInt.
 ECPInt:  NShTT=     325 NPrTT=    1080 LenC2=     326 LenP2D=    1032.
 LDataN:  DoStor=T MaxTD1= 7 Len=  274
 Symmetrizing basis deriv contribution to polar:
 IMax=3 JMax=2 DiffMx= 0.00D+00
 G2DrvN: will do     5 centers at a time, making    1 passes.
 Calling FoFCou, ICntrl=  3107 FMM=F I1Cent=   0 AccDes= 0.00D+00.
 End of G2Drv F.D. properties file   721 does not exist.
 End of G2Drv F.D. properties file   722 does not exist.
 End of G2Drv F.D. properties file   788 does not exist.
          IDoAtm=1111
          Differentiating once with respect to electric field.
                with respect to dipole field.
          Differentiating once with respect to nuclear coordinates.
 Keep R1 ints in memory in canonical form, NReq=4720151.
          There are    15 degrees of freedom in the 1st order CPHF.  IDoFFX=6 NUNeed=     3.
     12 vectors produced by pass  0 Test12= 2.76D-15 6.67D-09 XBig12= 2.29D+01 3.04D+00.
 AX will form    12 AO Fock derivatives at one time.
     12 vectors produced by pass  1 Test12= 2.76D-15 6.67D-09 XBig12= 2.21D+00 8.00D-01.
     12 vectors produced by pass  2 Test12= 2.76D-15 6.67D-09 XBig12= 3.86D-02 6.90D-02.
     12 vectors produced by pass  3 Test12= 2.76D-15 6.67D-09 XBig12= 2.50D-04 4.86D-03.
     12 vectors produced by pass  4 Test12= 2.76D-15 6.67D-09 XBig12= 2.41D-06 4.85D-04.
      9 vectors produced by pass  5 Test12= 2.76D-15 6.67D-09 XBig12= 4.01D-09 2.43D-05.
      4 vectors produced by pass  6 Test12= 2.76D-15 6.67D-09 XBig12= 4.45D-12 7.29D-07.
      3 vectors produced by pass  7 Test12= 2.76D-15 6.67D-09 XBig12= 5.72D-15 2.33D-08.
 InvSVY:  IOpt=1 It=  1 EMax= 8.88D-16
 Solved reduced A of dimension    76 with    12 vectors.
 Isotropic polarizability for W=    0.000000       25.70 Bohr**3.
 End of Minotr F.D. properties file   721 does not exist.
 End of Minotr F.D. properties file   722 does not exist.
 End of Minotr F.D. properties file   788 does not exist.

 **********************************************************************

            Population analysis using the SCF Density.

 **********************************************************************

 Orbital symmetries:
       Occupied  (A) (A) (A) (A) (A) (A) (A) (A) (A)
       Virtual   (A) (A) (A) (A) (A) (A) (A) (A) (A) (A) (A) (A)
                 (A) (A) (A) (A) (A) (A) (A) (A) (A) (A) (A) (A)
                 (A) (A) (A) (A) (A) (A) (A) (A) (A) (A) (A) (A)
                 (A) (A) (A) (A) (A) (A) (A) (A) (A) (A)
 The electronic state is 1-A.
 Alpha  occ. eigenvalues --  -77.22545  -6.64969  -4.76849  -4.76849  -4.76421
 Alpha  occ. eigenvalues --   -0.65766  -0.39544  -0.39544  -0.28335
 Alpha virt. eigenvalues --    0.02980   0.02980   0.04438   0.18561   0.18561
 Alpha virt. eigenvalues --    0.22973   0.25681   0.25682   0.26151   0.33656
 Alpha virt. eigenvalues --    0.33656   0.40678   0.53148   0.58525   0.58526
 Alpha virt. eigenvalues --    1.14241   1.16229   1.16230   1.19648   1.19650
 Alpha virt. eigenvalues --    1.20549   1.20795   1.20795   1.32443   1.38211
 Alpha virt. eigenvalues --    1.39161   1.39163   1.52746   1.60950   1.60951
 Alpha virt. eigenvalues --    1.83408   1.83409   1.91051   1.98449   2.15195
 Alpha virt. eigenvalues --    2.15195   2.37392   2.56562   2.56564   2.70271
 Alpha virt. eigenvalues --    2.75019   2.75019   7.33861   7.35786   7.35790
 Alpha virt. eigenvalues --   14.20336
          Condensed to atoms (all electrons):
               1          2          3          4
     1  P   14.098846   0.344791   0.344788   0.344799
     2  H    0.344791   0.650937  -0.020061  -0.020066
     3  H    0.344788  -0.020061   0.650927  -0.020065
     4  H    0.344799  -0.020066  -0.020065   0.650915
 Mulliken charges:
               1
     1  P   -0.133224
     2  H    0.044399
     3  H    0.044409
     4  H    0.044416
 Sum of Mulliken charges =  -0.00000
 Mulliken charges with hydrogens summed into heavy atoms:
               1
     1  P   -0.000000
 APT charges:
               1
     1  P    0.284240
     2  H   -0.094712
     3  H   -0.094882
     4  H   -0.094647
 Sum of APT charges =  -0.00000
 APT charges with hydrogens summed into heavy atoms:
               1
     1  P   -0.000000
 Electronic spatial extent (au):  <R**2>=             54.7755
 Charge=             -0.0000 electrons
 Dipole moment (field-independent basis, Debye):
    X=              0.0001    Y=              0.0001    Z=              0.5698  Tot=              0.5698
 Quadrupole moment (field-independent basis, Debye-Ang):
   XX=            -14.6335   YY=            -14.6335   ZZ=            -16.9095
   XY=             -0.0000   XZ=              0.0000   YZ=              0.0000
 Traceless Quadrupole moment (field-independent basis, Debye-Ang):
   XX=              0.7586   YY=              0.7587   ZZ=             -1.5173
   XY=             -0.0000   XZ=              0.0000   YZ=              0.0000
 Octapole moment (field-independent basis, Debye-Ang**2):
  XXX=              0.0055  YYY=             -0.0153  ZZZ=              1.0383  XYY=             -0.0053
  XXY=              0.0154  XXZ=              0.1964  XZZ=              0.0001  YZZ=              0.0001
  YYZ=              0.1965  XYZ=             -0.0000
 Hexadecapole moment (field-independent basis, Debye-Ang**3):
 XXXX=            -30.6719 YYYY=            -30.6717 ZZZZ=            -34.9294 XXXY=             -0.0001
 XXXZ=             -0.1715 YYYX=             -0.0000 YYYZ=              0.4946 ZZZX=              0.0001
 ZZZY=              0.0002 XXYY=            -10.2239 XXZZ=            -10.6169 YYZZ=            -10.6168
 XXYZ=             -0.4943 YYXZ=              0.1716 ZZXY=             -0.0000
 N-N= 1.759300918423D+01 E-N=-8.511040970288D+02  KE= 3.423707018851D+02
  Exact polarizability:      26.100      -0.013      26.115       0.002      -0.001      24.900
 Approx polarizability:      38.362      -0.000      38.362      -0.000      -0.001      33.624
   1 Symmetry operations used in ECPInt.
 ECPInt:  NShTT=     325 NPrTT=    1080 LenC2=     326 LenP2D=    1032.
 LDataN:  DoStor=T MaxTD1= 8 Len=  415
 Calling FoFJK, ICntrl=    100127 FMM=F ISym2X=0 I1Cent= 0 IOpClX= 0 NMat=1 NMatS=1 NMatT=0.
 ***** Axes restored to original set *****
 -------------------------------------------------------------------
 Center     Atomic                   Forces (Hartrees/Bohr)
 Number     Number              X              Y              Z
 -------------------------------------------------------------------
      1       15          -0.001793847    0.003194909   -0.003963399
      2        1           0.000612120   -0.001078255    0.001289233
      3        1           0.000584748   -0.001039403    0.001345352
      4        1           0.000596979   -0.001077251    0.001328814
 -------------------------------------------------------------------
 Cartesian Forces:  Max     0.003963399 RMS     0.001799263
 FormGI is forming the generalized inverse of G from B-inverse, IUseBI=4.

 GradGradGradGradGradGradGradGradGradGradGradGradGradGradGradGradGradGrad
 Berny optimization.
 Internal  Forces:  Max     0.002857408 RMS     0.001837134
 Search for a local minimum.
 Step number   1 out of a maximum of   20
 All quantities printed in internal units (Hartrees-Bohrs-Radians)
 Mixed Optimization -- RFO/linear search
 Second derivative matrix not updated -- analytic derivatives used.
 The second derivative matrix:
                          R1        R2        R3        A1        A2
           R1           0.21984
           R2          -0.00023   0.21894
           R3          -0.00024  -0.00013   0.21909
           A1           0.00374   0.00320   0.00102   0.04121
           A2           0.00772   0.00287   0.00734  -0.01280   0.16055
           A3           0.00334   0.00724   0.00721  -0.01284  -0.00802
           D1           0.00470   0.00408   0.00226   0.03930   0.00009
                          A3        D1
           A3           0.16052
           D1           0.00005   0.03957
 ITU=  0
     Eigenvalues ---    0.07678   0.15306   0.16818   0.21929   0.22011
     Eigenvalues ---    0.22229
 RFO step:  Lambda=-2.07086221D-04 EMin= 7.67826418D-02
 Linear search not attempted -- first point.
 Iteration  1 RMS(Cart)=  0.01671618 RMS(Int)=  0.00027913
 Iteration  2 RMS(Cart)=  0.00023784 RMS(Int)=  0.00014909
 Iteration  3 RMS(Cart)=  0.00000003 RMS(Int)=  0.00014909
 Variable       Old X    -DE/DX   Delta X   Delta X   Delta X     New X
                                 (Linear)    (Quad)   (Total)
    R1        2.67398   0.00097   0.00000   0.00634   0.00634   2.68032
    R2        2.67397   0.00100   0.00000   0.00632   0.00632   2.68029
    R3        2.67396   0.00095   0.00000   0.00609   0.00609   2.68006
    A1        1.64881  -0.00124   0.00000  -0.02084  -0.02111   1.62769
    A2        1.64881  -0.00286   0.00000  -0.02117  -0.02119   1.62762
    A3        1.64881  -0.00285   0.00000  -0.02111  -0.02113   1.62768
    D1        1.65542  -0.00173   0.00000  -0.02457  -0.02429   1.63112
         Item               Value     Threshold  Converged?
 Maximum Force            0.002857     0.000450     NO 
 RMS     Force            0.001837     0.000300     NO 
 Maximum Displacement     0.021019     0.001800     NO 
 RMS     Displacement     0.016810     0.001200     NO 
 Predicted change in Energy=-1.037556D-04
 GradGradGradGradGradGradGradGradGradGradGradGradGradGradGradGradGradGrad

                          Input orientation:                          
 ---------------------------------------------------------------------
 Center     Atomic      Atomic             Coordinates (Angstroms)
 Number     Number       Type             X           Y           Z
 ---------------------------------------------------------------------
      1         15           0       -0.071298    1.235138   -0.170073
      2          1           0        1.308146    1.026001    0.085176
      3          1           0       -0.375544    1.446380    1.199058
      4          1           0       -0.375464   -0.148680   -0.107681
 ---------------------------------------------------------------------
                    Distance matrix (angstroms):
                    1          2          3          4
     1  P    0.000000
     2  H    1.418364   0.000000
     3  H    1.418347   2.062102   0.000000
     4  H    1.418225   2.061944   2.061986   0.000000
 Stoichiometry    H3P
 Framework group  C1[X(H3P)]
 Deg. of freedom     6
 Full point group                 C1      NOp   1
 Largest Abelian subgroup         C1      NOp   1
 Largest concise Abelian subgroup C1      NOp   1
                         Standard orientation:                         
 ---------------------------------------------------------------------
 Center     Atomic      Atomic             Coordinates (Angstroms)
 Number     Number       Type             X           Y           Z
 ---------------------------------------------------------------------
      1         15           0        0.000010    0.000030   -0.128486
      2          1           0       -0.946381   -0.722502    0.642259
      3          1           0        1.098745   -0.458442    0.642419
      4          1           0       -0.152521    1.180496    0.642614
 ---------------------------------------------------------------------
 Rotational constants (GHZ):         133.7168705         133.7029742         117.9370465
 Standard basis: def2TZVP (5D, 7F)
 There are    60 symmetry adapted cartesian basis functions of A   symmetry.
 There are    55 symmetry adapted basis functions of A   symmetry.
    55 basis functions,    93 primitive gaussians,    60 cartesian basis functions
     9 alpha electrons        9 beta electrons
       nuclear repulsion energy        17.5595537279 Hartrees.
 NAtoms=    4 NActive=    4 NUniq=    4 SFac= 1.00D+00 NAtFMM=   60 NAOKFM=F Big=F
 Integral buffers will be    131072 words long.
 Raffenetti 2 integral format.
 Two-electron integral symmetry is turned on.
 One-electron integrals computed using PRISM.
   1 Symmetry operations used in ECPInt.
 ECPInt:  NShTT=     325 NPrTT=    1080 LenC2=     326 LenP2D=    1032.
 LDataN:  DoStor=T MaxTD1= 6 Len=  172
 NBasis=    55 RedAO= T EigKep=  1.34D-02  NBF=    55
 NBsUse=    55 1.00D-06 EigRej= -1.00D+00 NBFU=    55
 Initial guess from the checkpoint file:  "checkpoint.chk"
 B after Tr=    -0.000000    0.000000    0.000000
         Rot=    0.992823   -0.000087    0.000043   -0.119591 Ang= -13.74 deg.
 ExpMin= 9.04D-02 ExpMax= 5.24D+04 ExpMxC= 1.79D+03 IAcc=3 IRadAn=         5 AccDes= 0.00D+00
 Harris functional with IExCor= 1009 and IRadAn=       5 diagonalized for initial guess.
 HarFok:  IExCor= 1009 AccDes= 0.00D+00 IRadAn=         5 IDoV= 1 UseB2=F ITyADJ=14
 ICtDFT=  3500011 ScaDFX=  1.000000  1.000000  1.000000  1.000000
 FoFCou: FMM=F IPFlag=           0 FMFlag=      100000 FMFlg1=           0
         NFxFlg=           0 DoJE=T BraDBF=F KetDBF=T FulRan=T
         wScrn=  0.000000 ICntrl=       500 IOpCl=  0 I1Cent=   200000004 NGrid=           0
         NMat0=    1 NMatS0=      1 NMatT0=    0 NMatD0=    1 NMtDS0=    0 NMtDT0=    0
 Petite list used in FoFCou.
 Keep R1 ints in memory in canonical form, NReq=4730372.
 Requested convergence on RMS density matrix=1.00D-08 within 128 cycles.
 Requested convergence on MAX density matrix=1.00D-06.
 Requested convergence on             energy=1.00D-06.
 No special actions if energy rises.
 Integral accuracy reduced to 1.0D-05 until final iterations.
 Initial convergence to 1.0D-05 achieved.  Increase integral accuracy.
 SCF Done:  E(RM06) =  -343.133328213     A.U. after    9 cycles
            NFock=  9  Conv=0.58D-08     -V/T= 2.0023
 DoSCS=F DFT=T ScalE2(SS,OS)=  1.000000  1.000000
 Range of M.O.s used for correlation:     1    55
 NBasis=    55 NAE=     9 NBE=     9 NFC=     0 NFV=     0
 NROrb=     55 NOA=     9 NOB=     9 NVA=    46 NVB=    46
   1 Symmetry operations used in ECPInt.
 ECPInt:  NShTT=     325 NPrTT=    1080 LenC2=     326 LenP2D=    1032.
 LDataN:  DoStor=T MaxTD1= 7 Len=  274
 Symmetrizing basis deriv contribution to polar:
 IMax=3 JMax=2 DiffMx= 0.00D+00
 G2DrvN: will do     5 centers at a time, making    1 passes.
 Calling FoFCou, ICntrl=  3107 FMM=F I1Cent=   0 AccDes= 0.00D+00.
 End of G2Drv F.D. properties file   721 does not exist.
 End of G2Drv F.D. properties file   722 does not exist.
 End of G2Drv F.D. properties file   788 does not exist.
          IDoAtm=1111
          Differentiating once with respect to electric field.
                with respect to dipole field.
          Differentiating once with respect to nuclear coordinates.
 Keep R1 ints in memory in canonical form, NReq=4720151.
          There are    15 degrees of freedom in the 1st order CPHF.  IDoFFX=6 NUNeed=     3.
     12 vectors produced by pass  0 Test12= 2.76D-15 6.67D-09 XBig12= 2.30D+01 2.90D+00.
 AX will form    12 AO Fock derivatives at one time.
     12 vectors produced by pass  1 Test12= 2.76D-15 6.67D-09 XBig12= 2.33D+00 8.40D-01.
     12 vectors produced by pass  2 Test12= 2.76D-15 6.67D-09 XBig12= 3.96D-02 6.85D-02.
     12 vectors produced by pass  3 Test12= 2.76D-15 6.67D-09 XBig12= 2.53D-04 5.42D-03.
     12 vectors produced by pass  4 Test12= 2.76D-15 6.67D-09 XBig12= 2.69D-06 5.48D-04.
      9 vectors produced by pass  5 Test12= 2.76D-15 6.67D-09 XBig12= 4.87D-09 2.71D-05.
      4 vectors produced by pass  6 Test12= 2.76D-15 6.67D-09 XBig12= 5.42D-12 7.11D-07.
      3 vectors produced by pass  7 Test12= 2.76D-15 6.67D-09 XBig12= 6.09D-15 2.21D-08.
 InvSVY:  IOpt=1 It=  1 EMax= 1.33D-15
 Solved reduced A of dimension    76 with    12 vectors.
 Isotropic polarizability for W=    0.000000       25.82 Bohr**3.
 End of Minotr F.D. properties file   721 does not exist.
 End of Minotr F.D. properties file   722 does not exist.
 End of Minotr F.D. properties file   788 does not exist.
   1 Symmetry operations used in ECPInt.
 ECPInt:  NShTT=     325 NPrTT=    1080 LenC2=     326 LenP2D=    1032.
 LDataN:  DoStor=T MaxTD1= 8 Len=  415
 Calling FoFJK, ICntrl=    100127 FMM=F ISym2X=0 I1Cent= 0 IOpClX= 0 NMat=1 NMatS=1 NMatT=0.
 ***** Axes restored to original set *****
 -------------------------------------------------------------------
 Center     Atomic                   Forces (Hartrees/Bohr)
 Number     Number              X              Y              Z
 -------------------------------------------------------------------
      1       15           0.000023315   -0.000014404   -0.000004599
      2        1          -0.000003523    0.000023341    0.000006865
      3        1          -0.000024514    0.000014235   -0.000008970
      4        1           0.000004723   -0.000023173    0.000006704
 -------------------------------------------------------------------
 Cartesian Forces:  Max     0.000024514 RMS     0.000015451
 FormGI is forming the generalized inverse of G from B-inverse, IUseBI=4.

 GradGradGradGradGradGradGradGradGradGradGradGradGradGradGradGradGradGrad
 Berny optimization.
 Using GEDIIS/GDIIS optimizer.
 Internal  Forces:  Max     0.000029316 RMS     0.000013491
 Search for a local minimum.
 Step number   2 out of a maximum of   20
 All quantities printed in internal units (Hartrees-Bohrs-Radians)
 Mixed Optimization -- En-DIIS/RFO-DIIS
 Second derivative matrix not updated -- analytic derivatives used.
 DE= -1.05D-04 DEPred=-1.04D-04 R= 1.01D+00
 TightC=F SS=  1.41D+00  RLast= 4.53D-02 DXNew= 5.0454D-01 1.3578D-01
 Trust test= 1.01D+00 RLast= 4.53D-02 DXMaxT set to 3.00D-01
 The second derivative matrix:
                          R1        R2        R3        A1        A2
           R1           0.21586
           R2           0.00001   0.21687
           R3           0.00004  -0.00005   0.21652
           A1           0.00332   0.00396   0.00106   0.04128
           A2           0.00751   0.00295   0.00774  -0.01106   0.16274
           A3           0.00251   0.00773   0.00783  -0.01099  -0.00770
           D1           0.00394   0.00462   0.00201   0.04009  -0.00172
                          A3        D1
           A3           0.16285
           D1          -0.00166   0.04002
 ITU=  1  0
 Use linear search instead of GDIIS.
     Eigenvalues ---    0.07785   0.15473   0.16998   0.21629   0.21713
     Eigenvalues ---    0.22017
 RFO step:  Lambda= 0.00000000D+00 EMin= 7.78541484D-02
 Quintic linear search produced a step of -0.00456.
 Iteration  1 RMS(Cart)=  0.00011786 RMS(Int)=  0.00000066
 Iteration  2 RMS(Cart)=  0.00000001 RMS(Int)=  0.00000066
 Variable       Old X    -DE/DX   Delta X   Delta X   Delta X     New X
                                 (Linear)    (Quad)   (Total)
    R1        2.68032  -0.00001  -0.00003  -0.00001  -0.00004   2.68028
    R2        2.68029   0.00001  -0.00003   0.00006   0.00003   2.68032
    R3        2.68006   0.00001  -0.00003   0.00008   0.00005   2.68011
    A1        1.62769   0.00000   0.00010  -0.00001   0.00008   1.62778
    A2        1.62762   0.00003   0.00010   0.00009   0.00019   1.62781
    A3        1.62768   0.00001   0.00010  -0.00004   0.00006   1.62774
    D1        1.63112   0.00001   0.00011  -0.00001   0.00010   1.63122
         Item               Value     Threshold  Converged?
 Maximum Force            0.000029     0.000450     YES
 RMS     Force            0.000013     0.000300     YES
 Maximum Displacement     0.000166     0.001800     YES
 RMS     Displacement     0.000118     0.001200     YES
 Predicted change in Energy=-4.123709D-09
 Optimization completed.
    -- Stationary point found.
                           ----------------------------
                           !   Optimized Parameters   !
                           ! (Angstroms and Degrees)  !
 --------------------------                            --------------------------
 ! Name  Definition              Value          Derivative Info.                !
 --------------------------------------------------------------------------------
 ! R1    R(1,2)                  1.4184         -DE/DX =    0.0                 !
 ! R2    R(1,3)                  1.4183         -DE/DX =    0.0                 !
 ! R3    R(1,4)                  1.4182         -DE/DX =    0.0                 !
 ! A1    A(2,1,3)               93.26           -DE/DX =    0.0                 !
 ! A2    A(2,1,4)               93.2559         -DE/DX =    0.0                 !
 ! A3    A(3,1,4)               93.2591         -DE/DX =    0.0                 !
 ! D1    D(2,1,4,3)             93.4565         -DE/DX =    0.0                 !
 --------------------------------------------------------------------------------
 GradGradGradGradGradGradGradGradGradGradGradGradGradGradGradGradGradGrad

                          Input orientation:                          
 ---------------------------------------------------------------------
 Center     Atomic      Atomic             Coordinates (Angstroms)
 Number     Number       Type             X           Y           Z
 ---------------------------------------------------------------------
      1         15           0       -0.071298    1.235138   -0.170073
      2          1           0        1.308146    1.026001    0.085176
      3          1           0       -0.375544    1.446380    1.199058
      4          1           0       -0.375464   -0.148680   -0.107681
 ---------------------------------------------------------------------
                    Distance matrix (angstroms):
                    1          2          3          4
     1  P    0.000000
     2  H    1.418364   0.000000
     3  H    1.418347   2.062102   0.000000
     4  H    1.418225   2.061944   2.061986   0.000000
 Stoichiometry    H3P
 Framework group  C1[X(H3P)]
 Deg. of freedom     6
 Full point group                 C1      NOp   1
 Largest Abelian subgroup         C1      NOp   1
 Largest concise Abelian subgroup C1      NOp   1
                         Standard orientation:                         
 ---------------------------------------------------------------------
 Center     Atomic      Atomic             Coordinates (Angstroms)
 Number     Number       Type             X           Y           Z
 ---------------------------------------------------------------------
      1         15           0        0.000010    0.000030   -0.128486
      2          1           0       -0.946381   -0.722502    0.642259
      3          1           0        1.098745   -0.458442    0.642419
      4          1           0       -0.152521    1.180496    0.642614
 ---------------------------------------------------------------------
 Rotational constants (GHZ):         133.7168705         133.7029742         117.9370465

 **********************************************************************

            Population analysis using the SCF Density.

 **********************************************************************

 Orbital symmetries:
       Occupied  (A) (A) (A) (A) (A) (A) (A) (A) (A)
       Virtual   (A) (A) (A) (A) (A) (A) (A) (A) (A) (A) (A) (A)
                 (A) (A) (A) (A) (A) (A) (A) (A) (A) (A) (A) (A)
                 (A) (A) (A) (A) (A) (A) (A) (A) (A) (A) (A) (A)
                 (A) (A) (A) (A) (A) (A) (A) (A) (A) (A)
 The electronic state is 1-A.
 Alpha  occ. eigenvalues --  -77.22598  -6.64998  -4.76877  -4.76877  -4.76458
 Alpha  occ. eigenvalues --   -0.65729  -0.39287  -0.39286  -0.28644
 Alpha virt. eigenvalues --    0.02851   0.02852   0.04477   0.18647   0.18647
 Alpha virt. eigenvalues --    0.22995   0.25722   0.25723   0.26300   0.33579
 Alpha virt. eigenvalues --    0.33579   0.40764   0.53400   0.58141   0.58142
 Alpha virt. eigenvalues --    1.14756   1.16432   1.16432   1.19668   1.19670
 Alpha virt. eigenvalues --    1.20561   1.20641   1.20643   1.32688   1.37614
 Alpha virt. eigenvalues --    1.39302   1.39305   1.52955   1.60974   1.60975
 Alpha virt. eigenvalues --    1.82431   1.82432   1.89747   2.00112   2.16385
 Alpha virt. eigenvalues --    2.16391   2.36255   2.56567   2.56572   2.71341
 Alpha virt. eigenvalues --    2.74782   2.74785   7.34029   7.35520   7.35523
 Alpha virt. eigenvalues --   14.18650
          Condensed to atoms (all electrons):
               1          2          3          4
     1  P   14.100096   0.344916   0.344905   0.344926
     2  H    0.344916   0.651612  -0.020729  -0.020740
     3  H    0.344905  -0.020729   0.651620  -0.020736
     4  H    0.344926  -0.020740  -0.020736   0.651588
 Mulliken charges:
               1
     1  P   -0.134843
     2  H    0.044941
     3  H    0.044940
     4  H    0.044962
 Sum of Mulliken charges =  -0.00000
 Mulliken charges with hydrogens summed into heavy atoms:
               1
     1  P   -0.000000
 APT charges:
               1
     1  P    0.285225
     2  H   -0.095152
     3  H   -0.095150
     4  H   -0.094923
 Sum of APT charges =  -0.00000
 APT charges with hydrogens summed into heavy atoms:
               1
     1  P   -0.000000
 Electronic spatial extent (au):  <R**2>=             54.8337
 Charge=             -0.0000 electrons
 Dipole moment (field-independent basis, Debye):
    X=             -0.0001    Y=              0.0001    Z=              0.5425  Tot=              0.5425
 Quadrupole moment (field-independent basis, Debye-Ang):
   XX=            -14.6858   YY=            -14.6859   ZZ=            -16.8223
   XY=             -0.0000   XZ=              0.0001   YZ=              0.0004
 Traceless Quadrupole moment (field-independent basis, Debye-Ang):
   XX=              0.7122   YY=              0.7121   ZZ=             -1.4243
   XY=             -0.0000   XZ=              0.0001   YZ=              0.0004
 Octapole moment (field-independent basis, Debye-Ang**2):
  XXX=             -0.0160  YYY=             -0.0390  ZZZ=              0.9914  XYY=              0.0161
  XXY=              0.0397  XXZ=              0.1685  XZZ=             -0.0001  YZZ=              0.0001
  YYZ=              0.1685  XYZ=             -0.0000
 Hexadecapole moment (field-independent basis, Debye-Ang**3):
 XXXX=            -30.7215 YYYY=            -30.7193 ZZZZ=            -35.0862 XXXY=             -0.0001
 XXXZ=              0.1965 YYYX=             -0.0001 YYYZ=              0.4851 ZZZX=              0.0002
 ZZZY=              0.0014 XXYY=            -10.2398 XXZZ=            -10.6147 YYZZ=            -10.6140
 XXYZ=             -0.4840 YYXZ=             -0.1963 ZZXY=             -0.0002
 N-N= 1.755955372789D+01 E-N=-8.510323871824D+02  KE= 3.423628424527D+02
  Exact polarizability:      26.101       0.010      26.116      -0.003       0.001      25.255
 Approx polarizability:      38.359       0.000      38.354       0.001      -0.002      34.266
 Rotating derivatives to standard orientation.
 Full mass-weighted force constant matrix:
 Low frequencies ---   -0.0035    0.0042    0.0053   36.5366   51.2012  103.5551
 Low frequencies --- 1031.7271 1141.0788 1142.8326
 Diagonal vibrational polarizability:
        0.4510513       0.4474730       0.5856861
 Harmonic frequencies (cm**-1), IR intensities (KM/Mole), Raman scattering
 activities (A**4/AMU), depolarization ratios for plane and unpolarized
 incident light, reduced masses (AMU), force constants (mDyne/A),
 and normal coordinates:
                      1                      2                      3
                      A                      A                      A
 Frequencies --   1031.7086              1141.0772              1142.8289
 Red. masses --      1.0750                 1.0252                 1.0253
 Frc consts  --      0.6742                 0.7865                 0.7890
 IR Inten    --     17.4412                 8.6007                 8.6557
  Atom  AN      X      Y      Z        X      Y      Z        X      Y      Z
     1  15     0.00   0.00  -0.05    -0.01  -0.02  -0.00    -0.02   0.01  -0.00
     2   1     0.25   0.19   0.49    -0.41   0.26  -0.24     0.23  -0.53  -0.20
     3   1    -0.29   0.11   0.49     0.30   0.64  -0.04    -0.16   0.19   0.32
     4   1     0.03  -0.31   0.48     0.28  -0.18   0.31     0.66   0.16  -0.11
                      4                      5                      6
                      A                      A                      A
 Frequencies --   2413.7861              2421.6138              2423.5266
 Red. masses --      1.0324                 1.0407                 1.0408
 Frc consts  --      3.5439                 3.5957                 3.6019
 IR Inten    --     32.1472                58.2798                59.1928
  Atom  AN      X      Y      Z        X      Y      Z        X      Y      Z
     1  15    -0.01  -0.00   0.03    -0.02  -0.02  -0.00    -0.02   0.02  -0.00
     2   1     0.48   0.37  -0.36     0.47   0.36  -0.38     0.05   0.04  -0.04
     3   1    -0.38   0.16  -0.24     0.31  -0.13   0.21     0.61  -0.25   0.42
     4   1     0.06  -0.45  -0.26    -0.07   0.49   0.32     0.06  -0.51  -0.33

 -------------------
 - Thermochemistry -
 -------------------
 Temperature   298.150 Kelvin.  Pressure   1.00000 Atm.
 Atom     1 has atomic number 15 and mass  30.97376
 Atom     2 has atomic number  1 and mass   1.00783
 Atom     3 has atomic number  1 and mass   1.00783
 Atom     4 has atomic number  1 and mass   1.00783
 Molecular mass:    33.99724 amu.
 Principal axes and moments of inertia in atomic units:
                           1         2         3
     Eigenvalues --    13.49674  13.49814  15.30258
           X            1.00000  -0.00001   0.00002
           Y            0.00001   1.00000   0.00006
           Z           -0.00002  -0.00006   1.00000
 This molecule is an asymmetric top.
 Rotational symmetry number  1.
 Rotational temperatures (Kelvin)      6.41740     6.41673     5.66009
 Rotational constants (GHZ):         133.71687   133.70297   117.93705
 Zero-point vibrational energy      63249.8 (Joules/Mol)
                                   15.11707 (Kcal/Mol)
 Vibrational temperatures:   1484.40  1641.76  1644.28  3472.90  3484.16
          (Kelvin)           3486.91
 
 Zero-point correction=                           0.024091 (Hartree/Particle)
 Thermal correction to Energy=                    0.026998
 Thermal correction to Enthalpy=                  0.027942
 Thermal correction to Gibbs Free Energy=         0.003057
 Sum of electronic and zero-point Energies=           -343.109238
 Sum of electronic and thermal Energies=              -343.106330
 Sum of electronic and thermal Enthalpies=            -343.105386
 Sum of electronic and thermal Free Energies=         -343.130271
 
                     E (Thermal)             CV                S
                      KCal/Mol        Cal/Mol-Kelvin    Cal/Mol-Kelvin
 Total                   16.942              6.804             52.375
 Electronic               0.000              0.000              0.000
 Translational            0.889              2.981             36.502
 Rotational               0.889              2.981             15.685
 Vibrational             15.164              0.843              0.188
                       Q            Log10(Q)             Ln(Q)
 Total Bot       0.392412D-01         -1.406258         -3.238029
 Total V=0       0.472747D+10          9.674628         22.276655
 Vib (Bot)       0.842642D-11        -11.074357        -25.499649
 Vib (V=0)       0.101515D+01          0.006530          0.015035
 Electronic      0.100000D+01          0.000000          0.000000
 Translational   0.779147D+07          6.891619         15.868540
 Rotational      0.597694D+03          2.776479          6.393080
 ***** Axes restored to original set *****
 -------------------------------------------------------------------
 Center     Atomic                   Forces (Hartrees/Bohr)
 Number     Number              X              Y              Z
 -------------------------------------------------------------------
      1       15           0.000023315   -0.000014404   -0.000004599
      2        1          -0.000003523    0.000023341    0.000006865
      3        1          -0.000024514    0.000014235   -0.000008970
      4        1           0.000004723   -0.000023173    0.000006704
 -------------------------------------------------------------------
 Cartesian Forces:  Max     0.000024514 RMS     0.000015451

 ----------------------------------------------------------------------

 Electric dipole moment (input orientation):
 (Debye = 10**-18 statcoulomb cm , SI units = C m)
                  (au)            (Debye)         (10**-30 SI)
   Tot        0.213419D+00      0.542457D+00      0.180944D+01
   x          0.711073D-01      0.180737D+00      0.602873D+00
   y         -0.127572D+00     -0.324257D+00     -0.108160D+01
   z          0.155617D+00      0.395539D+00      0.131938D+01

 Dipole polarizability, Alpha (input orientation).
 (esu units = cm**3 , SI units = C**2 m**2 J**-1)
 Alpha(0;0):
               (au)            (10**-24 esu)      (10**-40 SI)
   iso        0.258240D+02      0.382673D+01      0.425781D+01
   aniso      0.853324D+00      0.126450D+00      0.140694D+00
   xx         0.260217D+02      0.385602D+01      0.429040D+01
   yx         0.177155D+00      0.262516D-01      0.292088D-01
   yy         0.258050D+02      0.382391D+01      0.425467D+01
   zx        -0.202785D+00     -0.300497D-01     -0.334348D-01
   zy         0.366794D+00      0.543533D-01      0.604762D-01
   zz         0.256454D+02      0.380025D+01      0.422835D+01

 ----------------------------------------------------------------------

 Dipole orientation:
    15          0.24983112          1.64413040         -1.67444345
     1          2.48302197          1.91915525         -0.21796325
     1         -1.10425651          3.44117586         -0.21807310
     1         -0.62853651         -0.42626378         -0.21682855

 Electric dipole moment (dipole orientation):
 (Debye = 10**-18 statcoulomb cm , SI units = C m)
                  (au)            (Debye)         (10**-30 SI)
   Tot        0.213419D+00      0.542457D+00      0.180944D+01
   x          0.000000D+00      0.000000D+00      0.000000D+00
   y          0.000000D+00      0.000000D+00      0.000000D+00
   z          0.213419D+00      0.542457D+00      0.180944D+01

 Dipole polarizability, Alpha (dipole orientation).
 (esu units = cm**3 , SI units = C**2 m**2 J**-1)
 Alpha(0;0):
               (au)            (10**-24 esu)      (10**-40 SI)
   iso        0.258240D+02      0.382673D+01      0.425781D+01
   aniso      0.853324D+00      0.126450D+00      0.140694D+00
   xx         0.261136D+02      0.386963D+01      0.430554D+01
   yx         0.116679D-01      0.172900D-02      0.192377D-02
   yy         0.261032D+02      0.386810D+01      0.430384D+01
   zx         0.204332D-02      0.302789D-03      0.336898D-03
   zy        -0.291989D-02     -0.432683D-03     -0.481425D-03
   zz         0.252554D+02      0.374246D+01      0.416405D+01

 ----------------------------------------------------------------------
 Unable to Open any file for archive entry.
 1\1\GINC-GADI-CPU-CLX-1411\Freq\RM06\def2TZVP\H3P1\PK8622\23-Jun-2020\
 0\\# M06/Def2TZVP Freq=(anharmonic,ReadAnharm) Opt=CalcAll\\Anharmonic
  frequencies for phosphine using VPT2\\0,1\P,-0.0712981207,1.235138139
 8,-0.1700727287\H,1.3081462713,1.0260011041,0.0851758732\H,-0.37554381
 83,1.4463804881,1.1990581626\H,-0.3754643323,-0.148679732,-0.107681307
 1\\Version=ES64L-G16RevC.01\State=1-A\HF=-343.1333282\RMSD=5.844e-09\R
 MSF=1.545e-05\ZeroPoint=0.0240906\Thermal=0.0269982\ETot=-343.10633\HT
 ot=-343.1053858\GTot=-343.1302709\Dipole=0.0711073,-0.1275725,0.155617
 \DipoleDeriv=0.2655159,-0.0181643,0.0213855,-0.0187588,0.286739,-0.038
 5915,0.0206059,-0.0393537,0.30342,-0.1934857,0.0128313,-0.0156068,0.09
 13298,-0.0460504,0.0007849,-0.111831,0.000799,-0.0459208,-0.0359897,-0
 .0102276,-0.0132646,-0.0217976,-0.0207513,0.0497449,0.0578025,-0.05179
 85,-0.2287076,-0.0360404,0.0155606,0.007486,-0.0507734,-0.2199373,-0.0
 119383,0.0334226,0.0903533,-0.0287916\Polar=26.0217169,0.1771546,25.80
 50178,-0.2027853,0.3667944,25.6453903\PG=C01 [X(H3P1)]\NImag=0\\0.2518
 4939,0.00092796,0.25094366,-0.00144496,0.00287373,0.24939168,-0.195035
 41,0.02364190,-0.02919815,0.20712936,0.04377112,-0.02701156,0.00281979
 ,-0.02594639,0.02674006,-0.05367951,0.00280882,-0.02794568,0.03196826,
 -0.00190922,0.02737744,-0.02850722,0.00108436,0.02644403,-0.00602812,0
 .00414714,0.02152753,0.03373133,-0.00186599,-0.02060871,-0.00831314,0.
 00170961,-0.00162141,-0.00211522,-0.00523283,0.02753725,0.04450111,-0.
 03423109,-0.20208746,-0.00092721,0.00189118,0.00201559,-0.04248233,0.0
 3153713,0.20124436,-0.02830676,-0.02565422,0.00419908,-0.00606584,-0.0
 2197187,0.00018373,0.00080401,0.00538921,-0.00109156,0.03356859,-0.042
 83308,-0.20332339,0.00261962,0.00059488,0.00189292,0.00121562,0.000001
 32,-0.00530713,0.00080278,0.04223688,0.20673760,0.01062337,0.02854854,
 -0.01935854,-0.00184289,-0.00280175,-0.00144735,-0.00548923,-0.0211087
 8,-0.00117249,-0.00329125,-0.00463801,0.02197837\\-0.00002331,0.000014
 40,0.00000460,0.00000352,-0.00002334,-0.00000687,0.00002451,-0.0000142
 4,0.00000897,-0.00000472,0.00002317,-0.00000670\\\@
 The archive entry for this job was punched.


 WE DON'T KNOW ONE MILLIONTH OF ONE PERCENT ABOUT
 ANYTHING.
                                     T. A. EDISON.
 Job cpu time:       0 days  0 hours  1 minutes 22.5 seconds.
 Elapsed time:       0 days  0 hours  0 minutes 21.3 seconds.
 File lengths (MBytes):  RWF=      6 Int=      0 D2E=      0 Chk=     76 Scr=      1
 Normal termination of Gaussian 16 at Tue Jun 23 13:41:34 2020.
 Link1:  Proceeding to internal job step number  2.
 ------------------------------------------------------------------
 #N Geom=AllCheck Guess=TCheck SCRF=Check GenChk RM06/def2TZVP Freq
 ------------------------------------------------------------------
 1/10=4,29=7,30=1,38=21,40=1,80=1/1,6,3;
 2/12=2,40=1/2;
 3/5=44,7=101,11=2,14=-4,25=1,30=1,70=2,71=2,74=-54,116=1,140=1/1,2,3;
 4/5=101,69=2/1;
 5/5=2,38=6,98=1/2;
 8/6=4,10=90,11=11/1;
 11/6=1,8=1,9=11,15=111,16=1/1,2,10;
 10/6=1,60=-2/2;
 6/7=2,8=2,9=2,10=2,28=1/1;
 7/10=1,25=1,71=2,72=1/1,2,3,16;
 1/38=20,80=1/6(3);
 7/8=1,25=202,44=-1,71=1,72=1,92=10/16,17;
 1/10=4,30=1,38=20,80=1/3;
 99//99;
 3/5=44,7=101,11=2,14=-2,25=1,30=1,70=5,71=2,74=-54,116=1,140=1/1,2,3;
 4/5=5,16=3,69=2/1;
 5/5=2,38=5,98=1/2;
 8/6=4,10=90,11=11/1;
 11/6=1,8=1,9=11,15=111,16=1/1,2,10;
 10/6=1,60=-2/2;
 6/7=2,8=2,9=2,10=2,28=1/1;
 7/7=1,10=1,25=1,71=1,72=1/1,2,3,16;
 1/38=20,80=1/6(-8);
 7/8=1,25=202,44=-1,71=1,72=1,92=10/16,17;
 1/10=4,30=1,38=20,80=1/3;
 99//99;
 Structure from the checkpoint file:  "checkpoint.chk"
 -----------------------------------------------
 Anharmonic frequencies for phosphine using VPT2
 -----------------------------------------------
 Charge =  0 Multiplicity = 1
 Redundant internal coordinates found in file.  (old form).
 P,0,-0.0712981207,1.2351381398,-0.1700727287
 H,0,1.3081462713,1.0260011041,0.0851758732
 H,0,-0.3755438183,1.4463804881,1.1990581626
 H,0,-0.3754643323,-0.148679732,-0.1076813071
 Recover connectivity data from disk.
 Numerical evaluation of third derivatives.
 Nuclear step= 0.010000 Angstroms, electric field step= 0.000333 atomic units, NStep=1.

 GradGradGradGradGradGradGradGradGradGradGradGradGradGradGradGradGradGrad
 Berny optimization.
 Initialization pass.
                           ----------------------------
                           !    Initial Parameters    !
                           ! (Angstroms and Degrees)  !
 --------------------------                            --------------------------
 ! Name  Definition              Value          Derivative Info.                !
 --------------------------------------------------------------------------------
 ! R1    R(1,2)                  1.4184         calculate D2E/DX2 analytically  !
 ! R2    R(1,3)                  1.4183         calculate D2E/DX2 analytically  !
 ! R3    R(1,4)                  1.4182         calculate D2E/DX2 analytically  !
 ! A1    A(2,1,3)               93.26           calculate D2E/DX2 analytically  !
 ! A2    A(2,1,4)               93.2559         calculate D2E/DX2 analytically  !
 ! A3    A(3,1,4)               93.2591         calculate D2E/DX2 analytically  !
 ! D1    D(2,1,4,3)             93.4565         calculate D2E/DX2 analytically  !
 --------------------------------------------------------------------------------
 Trust Radius=3.00D-01 FncErr=1.00D-07 GrdErr=1.00D-07 EigMax=2.50D+02 EigMin=1.00D-04
 Number of steps in this run=      2 maximum allowed number of steps=      2.
 GradGradGradGradGradGradGradGradGradGradGradGradGradGradGradGradGradGrad

                          Input orientation:                          
 ---------------------------------------------------------------------
 Center     Atomic      Atomic             Coordinates (Angstroms)
 Number     Number       Type             X           Y           Z
 ---------------------------------------------------------------------
      1         15           0       -0.071298    1.235138   -0.170073
      2          1           0        1.308146    1.026001    0.085176
      3          1           0       -0.375544    1.446380    1.199058
      4          1           0       -0.375464   -0.148680   -0.107681
 ---------------------------------------------------------------------
                    Distance matrix (angstroms):
                    1          2          3          4
     1  P    0.000000
     2  H    1.418364   0.000000
     3  H    1.418347   2.062102   0.000000
     4  H    1.418225   2.061944   2.061986   0.000000
 Stoichiometry    H3P
 Framework group  C1[X(H3P)]
 Deg. of freedom     6
 Full point group                 C1      NOp   1
 Largest Abelian subgroup         C1      NOp   1
 Largest concise Abelian subgroup C1      NOp   1
                         Standard orientation:                         
 ---------------------------------------------------------------------
 Center     Atomic      Atomic             Coordinates (Angstroms)
 Number     Number       Type             X           Y           Z
 ---------------------------------------------------------------------
      1         15           0        0.000010    0.000030   -0.128486
      2          1           0       -0.946381   -0.722502    0.642259
      3          1           0        1.098745   -0.458442    0.642419
      4          1           0       -0.152521    1.180496    0.642614
 ---------------------------------------------------------------------
 Rotational constants (GHZ):         133.7168705         133.7029742         117.9370465
 Standard basis: def2TZVP (5D, 7F)
 There are    60 symmetry adapted cartesian basis functions of A   symmetry.
 There are    55 symmetry adapted basis functions of A   symmetry.
    55 basis functions,    93 primitive gaussians,    60 cartesian basis functions
     9 alpha electrons        9 beta electrons
       nuclear repulsion energy        17.5595537279 Hartrees.
 NAtoms=    4 NActive=    4 NUniq=    4 SFac= 1.00D+00 NAtFMM=   60 NAOKFM=F Big=F
 Integral buffers will be    131072 words long.
 Raffenetti 2 integral format.
 Two-electron integral symmetry is turned on.
 One-electron integrals computed using PRISM.
   1 Symmetry operations used in ECPInt.
 ECPInt:  NShTT=     325 NPrTT=    1080 LenC2=     326 LenP2D=    1032.
 LDataN:  DoStor=T MaxTD1= 6 Len=  172
 NBasis=    55 RedAO= T EigKep=  1.34D-02  NBF=    55
 NBsUse=    55 1.00D-06 EigRej= -1.00D+00 NBFU=    55
 Initial guess from the checkpoint file:  "checkpoint.chk"
 B after Tr=     0.000000    0.000000    0.000000
         Rot=    1.000000   -0.000000    0.000000    0.000000 Ang=   0.00 deg.
 Keep R1 ints in memory in canonical form, NReq=4730372.
 Requested convergence on RMS density matrix=1.00D-08 within 128 cycles.
 Requested convergence on MAX density matrix=1.00D-06.
 Requested convergence on             energy=1.00D-06.
 No special actions if energy rises.
 SCF Done:  E(RM06) =  -343.133328213     A.U. after    1 cycles
            NFock=  1  Conv=0.14D-08     -V/T= 2.0023
 DoSCS=F DFT=T ScalE2(SS,OS)=  1.000000  1.000000
 Range of M.O.s used for correlation:     1    55
 NBasis=    55 NAE=     9 NBE=     9 NFC=     0 NFV=     0
 NROrb=     55 NOA=     9 NOB=     9 NVA=    46 NVB=    46
   1 Symmetry operations used in ECPInt.
 ECPInt:  NShTT=     325 NPrTT=    1080 LenC2=     326 LenP2D=    1032.
 LDataN:  DoStor=T MaxTD1= 7 Len=  274
 Symmetrizing basis deriv contribution to polar:
 IMax=3 JMax=2 DiffMx= 0.00D+00
 G2DrvN: will do     5 centers at a time, making    1 passes.
 Calling FoFCou, ICntrl=  3107 FMM=F I1Cent=   0 AccDes= 0.00D+00.
 End of G2Drv F.D. properties file   721 does not exist.
 End of G2Drv F.D. properties file   722 does not exist.
 End of G2Drv F.D. properties file   788 does not exist.
          IDoAtm=1111
          Differentiating once with respect to electric field.
                with respect to dipole field.
          Differentiating once with respect to nuclear coordinates.
 Keep R1 ints in memory in canonical form, NReq=4724888.
          There are    15 degrees of freedom in the 1st order CPHF.  IDoFFX=6 NUNeed=     3.
     12 vectors produced by pass  0 Test12= 2.76D-15 6.67D-09 XBig12= 2.30D+01 2.90D+00.
 AX will form    12 AO Fock derivatives at one time.
     12 vectors produced by pass  1 Test12= 2.76D-15 6.67D-09 XBig12= 2.33D+00 8.39D-01.
     12 vectors produced by pass  2 Test12= 2.76D-15 6.67D-09 XBig12= 4.10D-02 7.53D-02.
     12 vectors produced by pass  3 Test12= 2.76D-15 6.67D-09 XBig12= 2.48D-04 4.83D-03.
     12 vectors produced by pass  4 Test12= 2.76D-15 6.67D-09 XBig12= 2.64D-06 5.26D-04.
      9 vectors produced by pass  5 Test12= 2.76D-15 6.67D-09 XBig12= 4.36D-09 2.47D-05.
      4 vectors produced by pass  6 Test12= 2.76D-15 6.67D-09 XBig12= 4.39D-12 7.76D-07.
      3 vectors produced by pass  7 Test12= 2.76D-15 6.67D-09 XBig12= 3.96D-15 2.31D-08.
 InvSVY:  IOpt=1 It=  1 EMax= 1.67D-15
 Solved reduced A of dimension    76 with    12 vectors.
 Isotropic polarizability for W=    0.000000       25.84 Bohr**3.
 End of Minotr F.D. properties file   721 does not exist.
 End of Minotr F.D. properties file   722 does not exist.
 End of Minotr F.D. properties file   788 does not exist.

 **********************************************************************

            Population analysis using the SCF Density.

 **********************************************************************

 Orbital symmetries:
       Occupied  (A) (A) (A) (A) (A) (A) (A) (A) (A)
       Virtual   (A) (A) (A) (A) (A) (A) (A) (A) (A) (A) (A) (A)
                 (A) (A) (A) (A) (A) (A) (A) (A) (A) (A) (A) (A)
                 (A) (A) (A) (A) (A) (A) (A) (A) (A) (A) (A) (A)
                 (A) (A) (A) (A) (A) (A) (A) (A) (A) (A)
 The electronic state is 1-A.
 Alpha  occ. eigenvalues --  -77.22598  -6.64998  -4.76877  -4.76877  -4.76458
 Alpha  occ. eigenvalues --   -0.65729  -0.39287  -0.39286  -0.28644
 Alpha virt. eigenvalues --    0.02851   0.02852   0.04477   0.18647   0.18647
 Alpha virt. eigenvalues --    0.22995   0.25723   0.25723   0.26300   0.33579
 Alpha virt. eigenvalues --    0.33579   0.40764   0.53400   0.58141   0.58142
 Alpha virt. eigenvalues --    1.14756   1.16432   1.16432   1.19668   1.19670
 Alpha virt. eigenvalues --    1.20561   1.20641   1.20643   1.32688   1.37614
 Alpha virt. eigenvalues --    1.39302   1.39305   1.52955   1.60974   1.60975
 Alpha virt. eigenvalues --    1.82431   1.82432   1.89747   2.00112   2.16385
 Alpha virt. eigenvalues --    2.16391   2.36255   2.56567   2.56572   2.71341
 Alpha virt. eigenvalues --    2.74782   2.74785   7.34029   7.35520   7.35523
 Alpha virt. eigenvalues --   14.18650
          Condensed to atoms (all electrons):
               1          2          3          4
     1  P   14.100096   0.344916   0.344905   0.344926
     2  H    0.344916   0.651612  -0.020729  -0.020740
     3  H    0.344905  -0.020729   0.651620  -0.020736
     4  H    0.344926  -0.020740  -0.020736   0.651588
 Mulliken charges:
               1
     1  P   -0.134843
     2  H    0.044941
     3  H    0.044940
     4  H    0.044962
 Sum of Mulliken charges =  -0.00000
 Mulliken charges with hydrogens summed into heavy atoms:
               1
     1  P   -0.000000
 APT charges:
               1
     1  P    0.285689
     2  H   -0.095216
     3  H   -0.095257
     4  H   -0.095215
 Sum of APT charges =   0.00000
 APT charges with hydrogens summed into heavy atoms:
               1
     1  P    0.000000
 Electronic spatial extent (au):  <R**2>=             54.8337
 Charge=              0.0000 electrons
 Dipole moment (field-independent basis, Debye):
    X=             -0.0001    Y=              0.0001    Z=              0.5425  Tot=              0.5425
 Quadrupole moment (field-independent basis, Debye-Ang):
   XX=            -14.6858   YY=            -14.6859   ZZ=            -16.8223
   XY=             -0.0000   XZ=              0.0001   YZ=              0.0004
 Traceless Quadrupole moment (field-independent basis, Debye-Ang):
   XX=              0.7122   YY=              0.7121   ZZ=             -1.4243
   XY=             -0.0000   XZ=              0.0001   YZ=              0.0004
 Octapole moment (field-independent basis, Debye-Ang**2):
  XXX=             -0.0160  YYY=             -0.0390  ZZZ=              0.9914  XYY=              0.0161
  XXY=              0.0397  XXZ=              0.1685  XZZ=             -0.0001  YZZ=              0.0001
  YYZ=              0.1685  XYZ=             -0.0000
 Hexadecapole moment (field-independent basis, Debye-Ang**3):
 XXXX=            -30.7215 YYYY=            -30.7193 ZZZZ=            -35.0862 XXXY=             -0.0001
 XXXZ=              0.1965 YYYX=             -0.0001 YYYZ=              0.4851 ZZZX=              0.0002
 ZZZY=              0.0014 XXYY=            -10.2398 XXZZ=            -10.6147 YYZZ=            -10.6140
 XXYZ=             -0.4840 YYXZ=             -0.1963 ZZXY=             -0.0002
 N-N= 1.755955372789D+01 E-N=-8.510323859684D+02  KE= 3.423628419244D+02
  Exact polarizability:      26.141      -0.000      26.139       0.002       0.000      25.255
 Approx polarizability:      38.359       0.000      38.354       0.001      -0.002      34.266
   1 Symmetry operations used in ECPInt.
 ECPInt:  NShTT=     325 NPrTT=    1080 LenC2=     326 LenP2D=    1032.
 LDataN:  DoStor=T MaxTD1= 8 Len=  415
 Calling FoFJK, ICntrl=    100127 FMM=F ISym2X=0 I1Cent= 0 IOpClX= 0 NMat=1 NMatS=1 NMatT=0.
 Full mass-weighted force constant matrix:
 Low frequencies ---  -42.4299   -0.0083   -0.0071   -0.0065   47.1594   91.0884
 Low frequencies --- 1031.8241 1140.8409 1142.5603
 Diagonal vibrational polarizability:
        0.4537974       0.4535376       0.5870144
 Harmonic frequencies (cm**-1), IR intensities (KM/Mole), Raman scattering
 activities (A**4/AMU), depolarization ratios for plane and unpolarized
 incident light, reduced masses (AMU), force constants (mDyne/A),
 and normal coordinates:
                      1                      2                      3
                      A                      A                      A
 Frequencies --   1031.8046              1140.8392              1142.5575
 Red. masses --      1.0750                 1.0252                 1.0253
 Frc consts  --      0.6743                 0.7862                 0.7886
 IR Inten    --     17.4634                 8.7043                 8.7464
  Atom  AN      X      Y      Z        X      Y      Z        X      Y      Z
     1  15     0.00   0.00  -0.05    -0.00  -0.02  -0.00    -0.02   0.00  -0.00
     2   1     0.25   0.19   0.49    -0.42   0.29  -0.23     0.20  -0.51  -0.21
     3   1    -0.29   0.11   0.49     0.31   0.63  -0.06    -0.14   0.22   0.32
     4   1     0.03  -0.31   0.48     0.25  -0.19   0.31     0.67   0.15  -0.09
                      4                      5                      6
                      A                      A                      A
 Frequencies --   2413.8844              2421.4793              2423.1159
 Red. masses --      1.0323                 1.0408                 1.0408
 Frc consts  --      3.5440                 3.5956                 3.6005
 IR Inten    --     32.1558                59.1645                59.4719
  Atom  AN      X      Y      Z        X      Y      Z        X      Y      Z
     1  15    -0.00  -0.00   0.03    -0.02  -0.02  -0.00    -0.02   0.02  -0.00
     2   1     0.47   0.36  -0.35     0.48   0.36  -0.39     0.08   0.07  -0.07
     3   1    -0.39   0.16  -0.24     0.26  -0.11   0.17     0.63  -0.26   0.44
     4   1     0.06  -0.46  -0.27    -0.07   0.52   0.33     0.06  -0.48  -0.31

 -------------------
 - Thermochemistry -
 -------------------
 Temperature   298.150 Kelvin.  Pressure   1.00000 Atm.
 Atom     1 has atomic number 15 and mass  30.97376
 Atom     2 has atomic number  1 and mass   1.00783
 Atom     3 has atomic number  1 and mass   1.00783
 Atom     4 has atomic number  1 and mass   1.00783
 Molecular mass:    33.99724 amu.
 Principal axes and moments of inertia in atomic units:
                           1         2         3
     Eigenvalues --    13.49674  13.49814  15.30258
           X            1.00000  -0.00001   0.00002
           Y            0.00001   1.00000   0.00006
           Z           -0.00002  -0.00006   1.00000
 This molecule is an asymmetric top.
 Rotational symmetry number  1.
 Rotational temperatures (Kelvin)      6.41740     6.41673     5.66009
 Rotational constants (GHZ):         133.71687   133.70297   117.93705
 Zero-point vibrational energy      63244.7 (Joules/Mol)
                                   15.11584 (Kcal/Mol)
 Vibrational temperatures:   1484.54  1641.41  1643.89  3473.04  3483.97
          (Kelvin)           3486.32
 
 Zero-point correction=                           0.024089 (Hartree/Particle)
 Thermal correction to Energy=                    0.026996
 Thermal correction to Enthalpy=                  0.027940
 Thermal correction to Gibbs Free Energy=         0.003055
 Sum of electronic and zero-point Energies=           -343.109240
 Sum of electronic and thermal Energies=              -343.106332
 Sum of electronic and thermal Enthalpies=            -343.105388
 Sum of electronic and thermal Free Energies=         -343.130273
 
                     E (Thermal)             CV                S
                      KCal/Mol        Cal/Mol-Kelvin    Cal/Mol-Kelvin
 Total                   16.940              6.805             52.375
 Electronic               0.000              0.000              0.000
 Translational            0.889              2.981             36.502
 Rotational               0.889              2.981             15.685
 Vibrational             15.163              0.843              0.188
                       Q            Log10(Q)             Ln(Q)
 Total Bot       0.393230D-01         -1.405354         -3.235947
 Total V=0       0.472750D+10          9.674631         22.276662
 Vib (Bot)       0.844399D-11        -11.073452        -25.497566
 Vib (V=0)       0.101516D+01          0.006533          0.015042
 Electronic      0.100000D+01          0.000000          0.000000
 Translational   0.779147D+07          6.891619         15.868540
 Rotational      0.597694D+03          2.776479          6.393080

     ==================================================
      Anharmonic Data: Displacement Vectors Definition
     ==================================================

 Framework definition based on atomic masses: C1  
 ***** Axes restored to original set *****
 -------------------------------------------------------------------
 Center     Atomic                   Forces (Hartrees/Bohr)
 Number     Number              X              Y              Z
 -------------------------------------------------------------------
      1       15           0.000023308   -0.000014403   -0.000004605
      2        1          -0.000003519    0.000023341    0.000006867
      3        1          -0.000024514    0.000014237   -0.000008968
      4        1           0.000004724   -0.000023175    0.000006706
 -------------------------------------------------------------------
 Cartesian Forces:  Max     0.000024514 RMS     0.000015451
 FormGI is forming the generalized inverse of G from B-inverse, IUseBI=4.
 NDeriv=      6 NFrqRd=  0 NDerD0=      0 MskFDP=       0 MskDFD=       0 MskDF0=       0
 At 1st pt F.D. properties file   721 does not exist.
 At 1st pt F.D. properties file   722 does not exist.
 D2Numr ... symmetry will not be used.
 Standard basis: def2TZVP (5D, 7F)
    55 basis functions,    93 primitive gaussians,    60 cartesian basis functions
     9 alpha electrons        9 beta electrons
       nuclear repulsion energy        17.5581776701 Hartrees.
 NAtoms=    4 NActive=    4 NUniq=    4 SFac= 1.00D+00 NAtFMM=   60 NAOKFM=F Big=F
 Integral buffers will be    131072 words long.
 Raffenetti 2 integral format.
 Two-electron integral symmetry is turned off.
 One-electron integrals computed using PRISM.
   1 Symmetry operations used in ECPInt.
 ECPInt:  NShTT=     325 NPrTT=    1080 LenC2=     326 LenP2D=    1032.
 LDataN:  DoStor=T MaxTD1= 6 Len=  172
 NBasis=    55 RedAO= T EigKep=  1.33D-02  NBF=    55
 NBsUse=    55 1.00D-06 EigRej= -1.00D+00 NBFU=    55
 Initial guess from the checkpoint file:  "checkpoint.chk"
 B after Tr=    -0.000003   -0.000006    0.000754
         Rot=    1.000000    0.000001   -0.000000   -0.000000 Ang=   0.00 deg.
 Keep R1 ints in memory in canonical form, NReq=4730232.
 Requested convergence on RMS density matrix=1.00D-08 within 128 cycles.
 Requested convergence on MAX density matrix=1.00D-06.
 Requested convergence on             energy=1.00D-06.
 No special actions if energy rises.
 SCF Done:  E(RM06) =  -343.133320732     A.U. after    7 cycles
            NFock=  7  Conv=0.54D-08     -V/T= 2.0023
 DoSCS=F DFT=T ScalE2(SS,OS)=  1.000000  1.000000
 Range of M.O.s used for correlation:     1    55
 NBasis=    55 NAE=     9 NBE=     9 NFC=     0 NFV=     0
 NROrb=     55 NOA=     9 NOB=     9 NVA=    46 NVB=    46
   1 Symmetry operations used in ECPInt.
 ECPInt:  NShTT=     325 NPrTT=    1080 LenC2=     326 LenP2D=    1032.
 LDataN:  DoStor=T MaxTD1= 7 Len=  274
 Symmetrizing basis deriv contribution to polar:
 IMax=3 JMax=2 DiffMx= 0.00D+00
 G2DrvN: will do     5 centers at a time, making    1 passes.
 Calling FoFCou, ICntrl=  3107 FMM=F I1Cent=   0 AccDes= 0.00D+00.
 End of G2Drv F.D. properties file   721 does not exist.
 End of G2Drv F.D. properties file   722 does not exist.
 End of G2Drv F.D. properties file   788 does not exist.
          IDoAtm=1111
          Differentiating once with respect to electric field.
                with respect to dipole field.
          Differentiating once with respect to nuclear coordinates.
 Keep R1 ints in memory in canonical form, NReq=4724748.
          There are    15 degrees of freedom in the 1st order CPHF.  IDoFFX=6 NUNeed=     3.
     12 vectors produced by pass  0 Test12= 2.76D-15 6.67D-09 XBig12= 2.29D+01 2.93D+00.
 AX will form    12 AO Fock derivatives at one time.
     12 vectors produced by pass  1 Test12= 2.76D-15 6.67D-09 XBig12= 2.36D+00 8.49D-01.
     12 vectors produced by pass  2 Test12= 2.76D-15 6.67D-09 XBig12= 4.12D-02 7.51D-02.
     12 vectors produced by pass  3 Test12= 2.76D-15 6.67D-09 XBig12= 2.47D-04 4.03D-03.
     12 vectors produced by pass  4 Test12= 2.76D-15 6.67D-09 XBig12= 2.71D-06 5.90D-04.
      9 vectors produced by pass  5 Test12= 2.76D-15 6.67D-09 XBig12= 4.57D-09 2.63D-05.
      4 vectors produced by pass  6 Test12= 2.76D-15 6.67D-09 XBig12= 4.72D-12 8.04D-07.
      3 vectors produced by pass  7 Test12= 2.76D-15 6.67D-09 XBig12= 4.20D-15 2.42D-08.
 InvSVY:  IOpt=1 It=  1 EMax= 1.55D-15
 Solved reduced A of dimension    76 with    12 vectors.
 Isotropic polarizability for W=    0.000000       25.86 Bohr**3.
 End of Minotr F.D. properties file   721 does not exist.
 End of Minotr F.D. properties file   722 does not exist.
 End of Minotr F.D. properties file   788 does not exist.

 **********************************************************************

            Population analysis using the SCF Density.

 **********************************************************************

 Alpha  occ. eigenvalues --  -77.22598  -6.64996  -4.76874  -4.76874  -4.76458
 Alpha  occ. eigenvalues --   -0.65733  -0.39227  -0.39223  -0.28726
 Alpha virt. eigenvalues --    0.02825   0.02827   0.04495   0.18669   0.18670
 Alpha virt. eigenvalues --    0.22996   0.25733   0.25734   0.26337   0.33563
 Alpha virt. eigenvalues --    0.33564   0.40831   0.53472   0.58048   0.58054
 Alpha virt. eigenvalues --    1.14908   1.16494   1.16495   1.19667   1.19668
 Alpha virt. eigenvalues --    1.20563   1.20611   1.20613   1.32749   1.37460
 Alpha virt. eigenvalues --    1.39351   1.39355   1.53014   1.60981   1.60983
 Alpha virt. eigenvalues --    1.82199   1.82206   1.89438   2.00619   2.16752
 Alpha virt. eigenvalues --    2.16769   2.36010   2.56609   2.56619   2.71649
 Alpha virt. eigenvalues --    2.74767   2.74774   7.34102   7.35476   7.35481
 Alpha virt. eigenvalues --   14.18500
          Condensed to atoms (all electrons):
               1          2          3          4
     1  P   14.100188   0.345067   0.345045   0.345062
     2  H    0.345067   0.651742  -0.020961  -0.020965
     3  H    0.345045  -0.020961   0.651752  -0.020949
     4  H    0.345062  -0.020965  -0.020949   0.651720
 Mulliken charges:
               1
     1  P   -0.135363
     2  H    0.045117
     3  H    0.045113
     4  H    0.045132
 Sum of Mulliken charges =  -0.00000
 Mulliken charges with hydrogens summed into heavy atoms:
               1
     1  P   -0.000000
 APT charges:
               1
     1  P    0.285638
     2  H   -0.095181
     3  H   -0.095253
     4  H   -0.095204
 Sum of APT charges =   0.00000
 APT charges with hydrogens summed into heavy atoms:
               1
     1  P    0.000000
 Electronic spatial extent (au):  <R**2>=             54.8282
 Charge=             -0.0000 electrons
 Dipole moment (field-independent basis, Debye):
    X=             -0.0000    Y=              0.0002    Z=              0.5360  Tot=              0.5360
 Quadrupole moment (field-independent basis, Debye-Ang):
   XX=            -14.6986   YY=            -14.6984   ZZ=            -16.7972
   XY=             -0.0002   XZ=              0.0000   YZ=              0.0003
 Traceless Quadrupole moment (field-independent basis, Debye-Ang):
   XX=              0.6995   YY=              0.6997   ZZ=             -1.3992
   XY=             -0.0002   XZ=              0.0000   YZ=              0.0003
 Octapole moment (field-independent basis, Debye-Ang**2):
  XXX=             -0.0189  YYY=             -0.0460  ZZZ=              0.9636  XYY=              0.0191
  XXY=              0.0471  XXZ=              0.1556  XZZ=             -0.0002  YZZ=              0.0000
  YYZ=              0.1557  XYZ=             -0.0001
 Hexadecapole moment (field-independent basis, Debye-Ang**3):
 XXXX=            -30.7156 YYYY=            -30.7141 ZZZZ=            -35.1170 XXXY=              0.0002
 XXXZ=              0.1959 YYYX=              0.0003 YYYZ=              0.4838 ZZZX=              0.0002
 ZZZY=              0.0015 XXYY=            -10.2378 XXZZ=            -10.6101 YYZZ=            -10.6096
 XXYZ=             -0.4824 YYXZ=             -0.1957 ZZXY=             -0.0000
 N-N= 1.755817767009D+01 E-N=-8.510305201614D+02  KE= 3.423627350138D+02
  Exact polarizability:      26.124      -0.001      26.122       0.002      -0.000      25.343
 Approx polarizability:      38.328      -0.002      38.326       0.000      -0.003      34.425
   1 Symmetry operations used in ECPInt.
 ECPInt:  NShTT=     325 NPrTT=    1080 LenC2=     326 LenP2D=    1032.
 LDataN:  DoStor=T MaxTD1= 8 Len=  415
 Calling FoFJK, ICntrl=    100127 FMM=F ISym2X=0 I1Cent= 0 IOpClX= 0 NMat=1 NMatS=1 NMatT=0.
 -------------------------------------------------------------------
 Center     Atomic                   Forces (Hartrees/Bohr)
 Number     Number              X              Y              Z
 -------------------------------------------------------------------
      1       15          -0.000032581   -0.000012278    0.001096828
      2        1          -0.000171514   -0.000154818   -0.000372227
      3        1           0.000232125   -0.000071294   -0.000386358
      4        1          -0.000028030    0.000238391   -0.000338243
 -------------------------------------------------------------------
 Cartesian Forces:  Max     0.001096828 RMS     0.000384756
 NDeriv=      6 NFrqRd=  0 NDerD0=      0 MskFDP=       0 MskDFD=       0 MskDF0=       0
 Re-enter D2Numr:  normal mode      1 step-up   number 1
 Standard basis: def2TZVP (5D, 7F)
    55 basis functions,    93 primitive gaussians,    60 cartesian basis functions
     9 alpha electrons        9 beta electrons
       nuclear repulsion energy        17.5606457831 Hartrees.
 NAtoms=    4 NActive=    4 NUniq=    4 SFac= 1.00D+00 NAtFMM=   60 NAOKFM=F Big=F
 Integral buffers will be    131072 words long.
 Raffenetti 2 integral format.
 Two-electron integral symmetry is turned off.
 One-electron integrals computed using PRISM.
   1 Symmetry operations used in ECPInt.
 ECPInt:  NShTT=     325 NPrTT=    1080 LenC2=     326 LenP2D=    1032.
 LDataN:  DoStor=T MaxTD1= 6 Len=  172
 NBasis=    55 RedAO= T EigKep=  1.34D-02  NBF=    55
 NBsUse=    55 1.00D-06 EigRej= -1.00D+00 NBFU=    55
 Initial guess from the checkpoint file:  "checkpoint.chk"
 B after Tr=     0.000003    0.000006   -0.000754
         Rot=    1.000000   -0.000001    0.000000    0.000000 Ang=  -0.00 deg.
 Keep R1 ints in memory in canonical form, NReq=4730232.
 Requested convergence on RMS density matrix=1.00D-08 within 128 cycles.
 Requested convergence on MAX density matrix=1.00D-06.
 Requested convergence on             energy=1.00D-06.
 No special actions if energy rises.
 SCF Done:  E(RM06) =  -343.133321308     A.U. after    7 cycles
            NFock=  7  Conv=0.55D-08     -V/T= 2.0023
 DoSCS=F DFT=T ScalE2(SS,OS)=  1.000000  1.000000
 Range of M.O.s used for correlation:     1    55
 NBasis=    55 NAE=     9 NBE=     9 NFC=     0 NFV=     0
 NROrb=     55 NOA=     9 NOB=     9 NVA=    46 NVB=    46
   1 Symmetry operations used in ECPInt.
 ECPInt:  NShTT=     325 NPrTT=    1080 LenC2=     326 LenP2D=    1032.
 LDataN:  DoStor=T MaxTD1= 7 Len=  274
 Symmetrizing basis deriv contribution to polar:
 IMax=3 JMax=2 DiffMx= 0.00D+00
 G2DrvN: will do     5 centers at a time, making    1 passes.
 Calling FoFCou, ICntrl=  3107 FMM=F I1Cent=   0 AccDes= 0.00D+00.
 End of G2Drv F.D. properties file   721 does not exist.
 End of G2Drv F.D. properties file   722 does not exist.
 End of G2Drv F.D. properties file   788 does not exist.
          IDoAtm=1111
          Differentiating once with respect to electric field.
                with respect to dipole field.
          Differentiating once with respect to nuclear coordinates.
 Keep R1 ints in memory in canonical form, NReq=4724748.
          There are    15 degrees of freedom in the 1st order CPHF.  IDoFFX=6 NUNeed=     3.
     12 vectors produced by pass  0 Test12= 2.76D-15 6.67D-09 XBig12= 2.30D+01 2.96D+00.
 AX will form    12 AO Fock derivatives at one time.
     12 vectors produced by pass  1 Test12= 2.76D-15 6.67D-09 XBig12= 2.30D+00 8.29D-01.
     12 vectors produced by pass  2 Test12= 2.76D-15 6.67D-09 XBig12= 4.07D-02 7.55D-02.
     12 vectors produced by pass  3 Test12= 2.76D-15 6.67D-09 XBig12= 2.48D-04 4.45D-03.
     12 vectors produced by pass  4 Test12= 2.76D-15 6.67D-09 XBig12= 2.58D-06 5.78D-04.
      9 vectors produced by pass  5 Test12= 2.76D-15 6.67D-09 XBig12= 4.18D-09 2.32D-05.
      4 vectors produced by pass  6 Test12= 2.76D-15 6.67D-09 XBig12= 4.13D-12 7.86D-07.
      3 vectors produced by pass  7 Test12= 2.76D-15 6.67D-09 XBig12= 3.77D-15 2.21D-08.
 InvSVY:  IOpt=1 It=  1 EMax= 1.33D-15
 Solved reduced A of dimension    76 with    12 vectors.
 Isotropic polarizability for W=    0.000000       25.83 Bohr**3.
 End of Minotr F.D. properties file   721 does not exist.
 End of Minotr F.D. properties file   722 does not exist.
 End of Minotr F.D. properties file   788 does not exist.

 **********************************************************************

            Population analysis using the SCF Density.

 **********************************************************************

 Alpha  occ. eigenvalues --  -77.22598  -6.65000  -4.76879  -4.76879  -4.76458
 Alpha  occ. eigenvalues --   -0.65725  -0.39348  -0.39347  -0.28563
 Alpha virt. eigenvalues --    0.02877   0.02878   0.04459   0.18625   0.18625
 Alpha virt. eigenvalues --    0.22993   0.25712   0.25713   0.26262   0.33594
 Alpha virt. eigenvalues --    0.33595   0.40701   0.53329   0.58230   0.58232
 Alpha virt. eigenvalues --    1.14605   1.16368   1.16370   1.19669   1.19671
 Alpha virt. eigenvalues --    1.20558   1.20670   1.20673   1.32624   1.37767
[...]
 Berny optimization.
 Internal  Forces:  Max     0.000029315 RMS     0.000013491
 Search for a local minimum.
 Step number   1 out of a maximum of    2
 All quantities printed in internal units (Hartrees-Bohrs-Radians)
 Second derivative matrix not updated -- analytic derivatives used.
 The second derivative matrix:
                          R1        R2        R3        A1        A2
           R1           0.21591
           R2           0.00002   0.21684
           R3           0.00006  -0.00004   0.21646
           A1           0.00332   0.00398   0.00104   0.04126
           A2           0.00751   0.00292   0.00775  -0.01103   0.16270
           A3           0.00250   0.00775   0.00787  -0.01098  -0.00768
           D1           0.00393   0.00464   0.00199   0.04007  -0.00169
                          A3        D1
           A3           0.16282
           D1          -0.00164   0.04001
 ITU=  0
     Eigenvalues ---    0.07784   0.15468   0.16992   0.21629   0.21710
     Eigenvalues ---    0.22016
 Angle between quadratic step and forces=  20.70 degrees.
 Linear search not attempted -- first point.
 Iteration  1 RMS(Cart)=  0.00011785 RMS(Int)=  0.00000001
 Iteration  2 RMS(Cart)=  0.00000001 RMS(Int)=  0.00000000
 Variable       Old X    -DE/DX   Delta X   Delta X   Delta X     New X
                                 (Linear)    (Quad)   (Total)
    R1        2.68032  -0.00001   0.00000  -0.00004  -0.00004   2.68028
    R2        2.68029   0.00001   0.00000   0.00003   0.00003   2.68032
    R3        2.68006   0.00001   0.00000   0.00005   0.00005   2.68011
    A1        1.62769   0.00000   0.00000   0.00008   0.00008   1.62778
    A2        1.62762   0.00003   0.00000   0.00019   0.00019   1.62781
    A3        1.62768   0.00001   0.00000   0.00006   0.00006   1.62773
    D1        1.63112   0.00001   0.00000   0.00010   0.00010   1.63122
         Item               Value     Threshold  Converged?
 Maximum Force            0.000029     0.000450     YES
 RMS     Force            0.000013     0.000300     YES
 Maximum Displacement     0.000166     0.001800     YES
 RMS     Displacement     0.000118     0.001200     YES
 Predicted change in Energy=-4.123204D-09
 Optimization completed.
    -- Stationary point found.
                           ----------------------------
                           !   Optimized Parameters   !
                           ! (Angstroms and Degrees)  !
 --------------------------                            --------------------------
 ! Name  Definition              Value          Derivative Info.                !
 --------------------------------------------------------------------------------
 ! R1    R(1,2)                  1.4184         -DE/DX =    0.0                 !
 ! R2    R(1,3)                  1.4183         -DE/DX =    0.0                 !
 ! R3    R(1,4)                  1.4182         -DE/DX =    0.0                 !
 ! A1    A(2,1,3)               93.26           -DE/DX =    0.0                 !
 ! A2    A(2,1,4)               93.2559         -DE/DX =    0.0                 !
 ! A3    A(3,1,4)               93.2591         -DE/DX =    0.0                 !
 ! D1    D(2,1,4,3)             93.4565         -DE/DX =    0.0                 !
 --------------------------------------------------------------------------------
 GradGradGradGradGradGradGradGradGradGradGradGradGradGradGradGradGradGrad


 ----------------------------------------------------------------------

 Electric dipole moment (input orientation):
 (Debye = 10**-18 statcoulomb cm , SI units = C m)
                  (au)            (Debye)         (10**-30 SI)
   Tot        0.213419D+00      0.542456D+00      0.180944D+01
   x          0.711072D-01      0.180736D+00      0.602872D+00
   y         -0.127572D+00     -0.324256D+00     -0.108160D+01
   z          0.155617D+00      0.395538D+00      0.131937D+01

 Dipole polarizability, Alpha (input orientation).
 (esu units = cm**3 , SI units = C**2 m**2 J**-1)
 Alpha(0;0):
               (au)            (10**-24 esu)      (10**-40 SI)
   iso        0.258449D+02      0.382982D+01      0.426125D+01
   aniso      0.884745D+00      0.131106D+00      0.145875D+00
   xx         0.260405D+02      0.385880D+01      0.429350D+01
   yx         0.176195D+00      0.261094D-01      0.290506D-01
   yy         0.258230D+02      0.382658D+01      0.425764D+01
   zx        -0.216555D+00     -0.320902D-01     -0.357052D-01
   zy         0.385379D+00      0.571072D-01      0.635404D-01
   zz         0.256711D+02      0.380407D+01      0.423260D+01

 ----------------------------------------------------------------------

 Dipole orientation:
    15          0.24983111          1.64413048         -1.67444337
     1          2.48302195          1.91915528         -0.21796315
     1         -1.10425654          3.44117586         -0.21807294
     1         -0.62853651         -0.42626377         -0.21682857

 Electric dipole moment (dipole orientation):
 (Debye = 10**-18 statcoulomb cm , SI units = C m)
                  (au)            (Debye)         (10**-30 SI)
   Tot        0.213419D+00      0.542456D+00      0.180944D+01
   x          0.000000D+00      0.000000D+00      0.000000D+00
   y          0.000000D+00      0.000000D+00      0.000000D+00
   z          0.213419D+00      0.542456D+00      0.180944D+01

 Dipole polarizability, Alpha (dipole orientation).
 (esu units = cm**3 , SI units = C**2 m**2 J**-1)
 Alpha(0;0):
               (au)            (10**-24 esu)      (10**-40 SI)
   iso        0.258449D+02      0.382982D+01      0.426125D+01
   aniso      0.884745D+00      0.131106D+00      0.145875D+00
   xx         0.261401D+02      0.387356D+01      0.430991D+01
   yx        -0.131902D-02     -0.195459D-03     -0.217477D-03
   yy         0.261395D+02      0.387348D+01      0.430983D+01
   zx        -0.169931D-02     -0.251812D-03     -0.280179D-03
   zy         0.494296D-03      0.732472D-04      0.814984D-04
   zz         0.252551D+02      0.374241D+01      0.416400D+01

 ----------------------------------------------------------------------
 Unable to Open any file for archive entry.
 1\1\GINC-GADI-CPU-CLX-1411\Freq\RM06\def2TZVP\H3P1\PK8622\23-Jun-2020\
 0\\#N Geom=AllCheck Guess=TCheck SCRF=Check GenChk RM06/def2TZVP Freq\
 \Anharmonic frequencies for phosphine using VPT2\\0,1\P,-0.0712981207,
 1.2351381398,-0.1700727287\H,1.3081462713,1.0260011041,0.0851758732\H,
 -0.3755438183,1.4463804881,1.1990581626\H,-0.3754643323,-0.148679732,-
 0.1076813071\\Version=ES64L-G16RevC.01\State=1-A\HF=-343.1333282\RMSD=
 1.362e-09\RMSF=1.545e-05\ZeroPoint=0.0240886\Thermal=0.0269963\ETot=-3
 43.1063319\HTot=-343.1053877\GTot=-343.1302729\Dipole=0.0711072,-0.127
 5723,0.1556168\DipoleDeriv=0.2657622,-0.0182006,0.0217167,-0.0180564,0
 .2877775,-0.0387632,0.0215117,-0.0390808,0.3035271,-0.1943297,0.012808
 6,-0.0158531,0.0922417,-0.0455303,0.000741,-0.1127532,0.0006974,-0.045
 7895,-0.0357179,-0.0106102,-0.0137201,-0.0223551,-0.0209909,0.050041,0
 .0576613,-0.0521504,-0.2290622,-0.0357146,0.0160021,0.0078564,-0.05183
 03,-0.2212563,-0.0120188,0.0335802,0.0905338,-0.0286754\Polar=26.04049
 83,0.1761947,25.8230417,-0.2165554,0.3853786,25.6711259\Quadrupole=0.3
 529269,-0.0374963,-0.3154306,0.3163048,-0.3861976,0.6921286\PG=C01 [X(
 H3P1)]\NImag=0\\0.25185660,0.00084821,0.25084714,-0.00138806,0.0028359
 7,0.24931253,-0.19509158,0.02365091,-0.02921979,0.20717407,0.04376782,
 -0.02695760,0.00282673,-0.02592427,0.02671409,-0.05373176,0.00280397,-
 0.02793129,0.03196703,-0.00189115,0.02731442,-0.02845859,0.00112471,0.
 02644621,-0.00602944,0.00413040,0.02156985,0.03368448,-0.00185287,-0.0
 2061347,-0.00827418,0.00170012,-0.00160937,-0.00211815,-0.00524994,0.0
 2748211,0.04450161,-0.03419385,-0.20205637,-0.00091554,0.00187398,0.00
 203541,-0.04250838,0.03155585,0.20118651,-0.02830643,-0.02562384,0.004
 16164,-0.00605305,-0.02197395,0.00019488,0.00080355,0.00540269,-0.0010
 7769,0.03355592,-0.04276316,-0.20327607,0.00261147,0.00057324,0.001852
 88,0.00120533,-0.00000517,-0.00525926,0.00076402,0.04219510,0.20668245
 ,0.01061821,0.02855391,-0.01932487,-0.00183171,-0.00280956,-0.00141855
 ,-0.00550768,-0.02116352,-0.00116555,-0.00327883,-0.00458082,0.0219089
 7\\-0.00002331,0.00001440,0.00000461,0.00000352,-0.00002334,-0.0000068
 7,0.00002451,-0.00001424,0.00000897,-0.00000472,0.00002318,-0.00000671
 \\-0.06629871,-0.03037309,-0.02259052,0.04449344,-0.07374908,0.0126283
 3,0.03967658,0.02081134,-0.02468648,-0.02716799,0.01642950,-0.00292925
 ,0.01201236,-0.01703800,0.00604844,-0.01929799,0.01208303,-0.00961622,
 0.01979908,-0.00931647,0.01179585,0.01596211,-0.00878700,-0.01962516,-
 0.00622993,0.00284650,0.00160599,-0.01023114,-0.00812562,0.01186350,0.
 02993601,-0.00025911,0.00102916,-0.00072062,0.00823385,-0.00767960,-0.
 02357466,0.03539804,0.00219929,0.00354854,-0.00321950,-0.00368088,0.01
 773340,-0.02729465,0.00519945,0.01066001,0.01834875,-0.00018180,-0.006
 27866,-0.00223800,-0.00210708,0.00049896,0.00015088,0.00229272,-0.0048
 8031,0.02206921,0.01365628,0.03180071,-0.00351423,-0.00414835,-0.00204
 594,-0.00229335,-0.00521305,-0.00488389,-0.01626163,-0.00429487,-0.001
 62079,0.02626801,-0.00521140,0.00133886,0.00052361,0.00150125,0.000285
 77,-0.00192074,-0.00371786,-0.00000384,-0.02487088,0.00742801,-0.04365
 012,0.02158043,0.03011147,0.05545690,0.03792273,0.00930430,0.01530958,
 -0.01314500,-0.02625032,-0.00654058,-0.01163403,-0.00398541,0.00041485
 ,0.00920112,-0.00147691,-0.02509093,0.00090207,-0.00182232,0.02133803,
 0.00197144,0.01146609,0.02632096,-0.00431679,-0.02456625,-0.01169020,0
 .00202414,0.00245989,-0.01254822,-0.00617679,-0.01400131,-0.01629242,0
 .00293999,0.00363776,-0.00292303,0.00042527,0.00212713,-0.02622441,-0.
 01718826,-0.00435129,0.00425478,-0.00330998,-0.00875961,0.02440570,0.0
 1581009,0.00583683,0.00201959,-0.00411864,-0.00464034,0.00292120,0.000
 40877,0.00129302,-0.00208253,0.00281153,-0.00243607,-0.00285826,-0.003
 76962,-0.01212474,-0.02204516,0.00100389,0.00182456,0.00004951,0.00186
 738,0.00823643,0.00468815,0.00089834,0.00206375,-0.00414155,-0.0216365
 4,-0.00313069,0.00065751,0.00092368,-0.00088416,-0.00229934,0.00340536
 ,0.00727407,0.00578338,0.01730750,-0.00325922,-0.03576264,-0.06531399,
 0.02192215,-0.01608388,0.03553299,0.01497578,0.01640130,0.03090363,0.0
 0971813,-0.00829816,0.02944246,0.00198509,0.00151564,-0.02493194,0.008
 64124,0.00865049,0.00102888,-0.00284166,-0.00658533,-0.00202567,-0.004
 10871,-0.00234775,0.00892211,0.00632338,0.00411144,-0.00155891,-0.0004
 7321,0.00013734,0.00835079,-0.01312679,-0.02093659,-0.00096917,-0.0009
 3494,0.00158914,-0.00900746,0.00588330,0.00614246,-0.02131437,-0.00315
 610,-0.00128327,0.00079211,0.00244722,-0.00281732,0.01649481,-0.005075
 22,0.02170909,0.02548825,0.00004237,-0.01221457,-0.00295161,-0.0015919
 5,-0.00190103,0.00162584,-0.00204187,-0.00759348,0.02752074,-0.0107804
 5,-0.01611204,-0.00500251,-0.00969139,-0.00059235,0.00164425,0.0081784
 3,0.00402744,-0.02416248,0.01229342,0.00129093,-0.01524750,-0.00897803
 ,-0.00184953,-0.00028208,0.00450315,-0.00303285,0.00285263,0.00578410,
 0.00359145,0.01267695,-0.00130923,-0.27531319,0.00168688,-0.18744207,-
 0.01043142,-0.01917855,-0.15379082,0.30751584,-0.05388191,0.06481036,-
 0.31897681,-0.06530222,-0.03443050,-0.00593682,0.05433246,0.03261151,0
 .07758865,-0.00594029,-0.03118495,-0.06511625,0.00616500,0.02913341,-0
 .01585556,-0.00347056,-0.04980050,0.00540280,-0.00475579,-0.01419061,0
 .01102600,-0.00237421,-0.02812728,0.03238253,-0.00066077,0.00112324,0.
 00035919,0.00737227,0.02213498,-0.05969860,0.04401372,0.21996674,-0.00
 012544,-0.00059742,0.00075919,0.05984864,-0.04417742,-0.22337334,-0.01
 634708,0.05566559,-0.00457845,0.00605817,0.01572555,0.00171822,-0.0005
 7323,-0.00433728,-0.00002459,0.01086214,0.06598955,0.24999985,-0.00726
 717,0.00021022,0.00069575,-0.00058391,0.00085409,0.00486906,0.00076112
 ,-0.06705386,-0.25556466,-0.00745863,-0.01889488,-0.03499097,0.0004313
 3,0.00036923,0.00129234,0.00414248,0.01143570,0.00264740,0.00288482,0.
 00708995,0.03105123,-0.36805809,0.13365254,0.31649297,-0.11951198,0.01
 973958,0.14958068,0.32930488,-0.06389733,0.07361074,-0.32779096,-0.065
 01725,-0.03931515,-0.01116435,0.06332413,0.03711220,0.07916320,-0.0119
 5174,-0.03239623,-0.07297706,0.01073106,0.03088927,0.01543027,0.004971
 27,0.04264372,0.00001983,-0.00057719,-0.00557479,-0.01619499,0.0010693
 6,0.01694342,-0.02009935,-0.00021528,-0.00023101,0.00160379,-0.0036631
 3,-0.01301835,0.03445634,-0.03067043,-0.15433860,-0.00007958,-0.000054
 48,0.00168837,-0.03469242,0.03049307,0.15500321,0.02332294,-0.07472648
 ,0.00325753,-0.00153376,0.00227030,-0.00061135,0.00074489,0.00280905,0
 .00031566,-0.02253407,-0.06970465,-0.29412123,0.01152411,0.00078848,0.
 00243397,-0.00038311,-0.00073095,-0.00369406,0.00023184,0.06964713,0.2
 9538132,0.00589244,0.02288259,0.03715415,-0.00055410,0.00048777,-0.000
 18141,-0.00237651,-0.01199752,-0.00235298,-0.00296184,-0.01137284,-0.0
 3461976,0.06816006,0.06701758,0.31960338,0.10485694,-0.08298993,-0.431
 53052,-0.05570950,0.00496310,-0.01718203,0.05485687,0.01596239,0.00371
 651,0.00420495,-0.00499901,-0.00440108,-0.00876508,0.00133278,0.008163
 70,0.01697890,-0.00240301,-0.00695638,-0.03199282,-0.01078623,-0.08966
 092,0.00507438,-0.00219458,-0.00821755,0.02711836,-0.01137959,-0.04879
 748,0.06155896,-0.00101934,0.00018228,0.00072685,0.01242727,0.04514459
 ,-0.09801354,0.06558327,0.38537417,0.00131699,-0.00045733,-0.00142202,
 0.09651886,-0.06467436,-0.38211713,0.01954226,-0.06119445,0.00198600,-
 0.00422176,-0.00876880,0.00000373,-0.00019992,-0.00002835,0.00017768,-
 0.01512058,-0.07160039,-0.27452241,0.01722601,0.00105525,0.00050229,0.
 00034338,0.00055354,0.00347061,-0.00045157,0.06999159,0.27054950,0.001
 92168,0.01607388,0.03799265,-0.00111387,-0.00134461,0.00021470,0.00135
 960,0.00238855,-0.00183501,-0.00216741,-0.01711782,-0.03637234,-0.0973
 3176,0.05695090,-0.12515534,-0.04688981,0.01802086,-0.12159523,0.06285
 309,-0.04368286,0.06648592,-0.06340363,-0.05437717,0.00982438,-0.00462
 123,0.04509607,-0.00935277,0.07817044,-0.00374078,-0.00744996,-0.06688
 615,0.00067837,0.01028973,0.02118816,-0.02069505,-0.03066087,0.0002724
 0,0.00176525,-0.00715359,-0.02278172,-0.01962368,0.02500537,-0.0011324
 4,-0.00007102,0.00024490,0.00339409,0.01907393,-0.02529231,-0.03921454
 ,0.01223815,0.11010980,0.00135346,0.00054662,-0.00200954,0.03817991,-0
 .01121606,-0.10576510,0.01329092,0.00742700,0.01106482,0.00027813,0.00
 751586,-0.00413070,0.00132116,0.00062076,-0.00031883,-0.01489022,0.017
 04994,0.09032608,-0.01226726,-0.00134219,-0.00071651,-0.00033168,-0.00
 014413,0.00004203,-0.00156871,-0.01556362,-0.08965161,0.00793398,-0.02
 651830,0.01893588,-0.00095323,0.00339624,-0.00083023,-0.00036546,0.008
 95440,-0.00233516,-0.00661529,0.01416766,-0.01577048,-0.07057877,0.007
 24663,-0.05505441,0.01553977,0.00501784,-0.10678794,0.05715769,-0.0099
 6083,0.03127944,-0.05525403,-0.00681777,-0.00181225,0.00005366,0.00695
 363,0.00164937,0.05010054,-0.00109199,-0.00033466,-0.04161085,0.002642
 26,0.00011658,0.00303238,-0.01319597,-0.04564043,-0.00101780,-0.001043
 22,-0.01049824,-0.00119980,-0.01259938,0.00718235,-0.00331177,0.003171
 19,0.00065410,-0.00123947,0.00972368,-0.00730344,-0.06013524,0.0128945
 8,0.10011553,0.00914701,-0.00290286,0.00202208,0.05105463,-0.00257276,
 -0.10408089,0.01038905,0.01591020,-0.00117865,-0.00088586,0.00090736,0
 .00200855,-0.00081478,-0.00029549,-0.00006639,-0.00868841,0.01217054,0
 .04968480,-0.00175982,-0.00016399,-0.00049122,-0.00031081,0.00451552,-
 0.00053301,-0.00741897,-0.01652207,-0.04866057,-0.00550494,-0.01682053
 ,0.00700753,0.00118440,0.00020694,-0.00180399,0.00508405,0.00712400,0.
 00194329,-0.00076351,0.00948959,-0.00714682,-0.10119799,0.02661538,-0.
 14486320,-0.00762307,0.00982641,-0.06118755,0.08655067,-0.01423287,0.0
 2151415,-0.08656627,-0.03861239,0.01213765,-0.00913190,0.02822669,-0.0
 1170462,0.02249190,-0.00666511,0.00379254,-0.02153467,0.00961901,-0.00
 495563,0.01528563,-0.00450995,-0.01976682,-0.00111702,-0.00328039,-0.0
 0075038,-0.01353478,-0.00119420,0.01319422,-0.00028292,-0.00192514,-0.
 00119221,0.00089455,0.00862650,-0.01371776,-0.01930936,0.01092896,0.05
 420404,0.00140786,0.00092298,-0.00033341,0.02036071,-0.00599445,-0.053
 36713,-0.00063823,-0.00787261,0.00587577,0.00113262,0.01366610,-0.0002
 0685,-0.00063383,-0.00550717,-0.00245921,0.00013944,0.01319115,0.11953
 145,-0.00041167,-0.01206868,0.00075917,-0.00384845,-0.00083616,0.00171
 575,-0.00585749,-0.00028632,-0.12200637,0.00444056,-0.01409035,0.00319
 114,-0.00138735,-0.00141008,0.00149650,0.00015649,0.00538281,-0.000503
 51,-0.00320971,0.01011762,-0.00418414,-0.01246406,0.09923099,-0.238357
 54,-0.02527782,0.02300338,-0.28828634,-0.10216590,0.02873633,0.1194374
 9,0.10825532,0.02871916,0.13254128,-0.02416326,-0.02272400,-0.13505316
 ,0.11798600,-0.02393827,0.15421995,-0.12584317,0.02577480,-0.15424900,
 0.09510121,-0.02943374,-0.08899967,-0.00105138,0.00388601,0.01011274,-
 0.09450348,-0.02982057,0.09932950,0.02127596,-0.00159198,-0.00011396,-
 0.00025795,0.02808635,-0.09677606,-0.08644290,0.02124822,0.04280717,0.
 00424133,-0.00143639,-0.00002206,0.08256085,-0.01510686,-0.04245888,0.
 01952902,-0.09853363,-0.00516002,-0.00503804,-0.00988117,-0.00225556,0
 .00045365,0.00332620,-0.00035928,-0.01494463,-0.09812963,0.00648702,-0
 .02011611,-0.00442036,0.00262584,-0.00157858,-0.00253862,-0.00243949,-
 0.00470497,0.10508860,-0.00667337,-0.00626529,-0.02031337,0.09125953,0
 .00216435,-0.00017515,0.00005111,-0.00367392,-0.00591114,-0.00032623,0
 .00777487,0.02639966,-0.09098441,0.01238903,0.10020361,-0.20074208,-0.
 07044553,0.03263624,-0.31787577,-0.09963562,0.03889340,0.12718550,0.09
 922118,0.03260827,0.15261427,-0.01934417,-0.03537286,-0.15444846,0.129
 91646,-0.01823173,0.17072790,-0.13065631,0.02026439,-0.16954887,0.0503
 2109,-0.01105734,-0.04709693,0.00177009,-0.00153878,0.00032037,-0.0534
 2105,-0.01335954,0.04585726,0.01324857,-0.00085557,0.00032569,-0.00137
 483,0.01425889,-0.04292453,-0.04906934,0.00899743,0.02623685,0.0027375
 8,-0.00017398,-0.00099080,0.04730425,-0.00506007,-0.02349999,0.0369258
 1,-0.12803967,-0.00964295,-0.00135564,0.00430336,0.00041948,0.00132987
 ,-0.00004378,-0.00097249,-0.03690004,-0.11945234,0.00227096,-0.0265407
 3,-0.00266497,0.00150850,-0.00065782,-0.00166277,-0.00325842,-0.003763
 38,0.12378008,-0.00052104,-0.01040150,-0.02340202,0.12091144,0.0007332
 4,-0.00074624,-0.00018822,-0.00052770,-0.00681367,-0.00174605,0.010195
 96,0.03096193,-0.11897716,-0.31122002,0.18961290,-0.31482500,0.2452723
 0,-0.04964970,-0.22836685,0.00124293,-0.00154978,0.00580002,0.00606458
 ,-0.00089329,0.00288158,0.00263412,0.00126982,-0.00502450,0.00039307,0
 .00202347,0.00814249,-0.00350543,-0.00019114,-0.00718818,0.28389213,-0
 .07908675,-0.24231815,-0.00441986,0.00182074,0.00322868,-0.27867134,-0
 .07835618,0.29362635,0.05860751,0.00102223,0.00040596,-0.00104244,0.07
 835899,-0.29273614,-0.23652037,0.06520216,0.11038192,-0.00084611,-0.00
 132632,-0.00193088,0.23895644,-0.06017062,-0.10870507,0.02608508,-0.10
 897638,-0.00875409,-0.00288765,-0.00219727,-0.00011632,-0.00080093,-0.
 00102505,-0.00158995,-0.02239650,-0.11036344,0.01831728,-0.01159201,-0
 .00074227,0.00173695,-0.00078989,-0.00109298,-0.00129617,-0.00370523,0
 .11219870,-0.01875806,-0.00914491,-0.01757601,0.10984265,-0.00144848,-
 0.00111667,0.00097656,0.00013303,0.00260555,0.00025403,0.01046036,0.01
 608713,-0.11107324\\@
 The archive entry for this job was punched.


 It is also a good rule not to put too much confidence in
 experimental results until they have been confirmed by
 Theory.
                             -- Sir Arthur Eddington
 Job cpu time:       0 days  0 hours 11 minutes 48.2 seconds.
 Elapsed time:       0 days  0 hours  2 minutes 59.7 seconds.
 File lengths (MBytes):  RWF=     45 Int=      0 D2E=      0 Chk=     76 Scr=      1
 Normal termination of Gaussian 16 at Tue Jun 23 13:44:35 2020.
