 Entering Gaussian System, Link 0=g16
 Input=silane.gjf
 Output=silane.log
 Initial command:
 /apps/gaussian/g16c01/g16/l1.exe "/jobfs/7627943.gadi-pbs/Gau-45407.inp" -scrdir="/jobfs/7627943.gadi-pbs/"
 Entering Link 1 = /apps/gaussian/g16c01/g16/l1.exe PID=     45408.
  
 Copyright (c) 1988-2019, Gaussian, Inc.  All Rights Reserved.
  
 This is part of the Gaussian(R) 16 program.  It is based on
 the Gaussian(R) 09 system (copyright 2009, Gaussian, Inc.),
 the Gaussian(R) 03 system (copyright 2003, Gaussian, Inc.),
 the Gaussian(R) 98 system (copyright 1998, Gaussian, Inc.),
 the Gaussian(R) 94 system (copyright 1995, Gaussian, Inc.),
 the Gaussian 92(TM) system (copyright 1992, Gaussian, Inc.),
 the Gaussian 90(TM) system (copyright 1990, Gaussian, Inc.),
 the Gaussian 88(TM) system (copyright 1988, Gaussian, Inc.),
 the Gaussian 86(TM) system (copyright 1986, Carnegie Mellon
 University), and the Gaussian 82(TM) system (copyright 1983,
 Carnegie Mellon University). Gaussian is a federally registered
 trademark of Gaussian, Inc.
  
 This software contains proprietary and confidential information,
 including trade secrets, belonging to Gaussian, Inc.
  
 This software is provided under written license and may be
 used, copied, transmitted, or stored only in accord with that
 written license.
  
 The following legend is applicable only to US Government
 contracts under FAR:
  
                    RESTRICTED RIGHTS LEGEND
  
 Use, reproduction and disclosure by the US Government is
 subject to restrictions as set forth in subparagraphs (a)
 and (c) of the Commercial Computer Software - Restricted
 Rights clause in FAR 52.227-19.
  
 Gaussian, Inc.
 340 Quinnipiac St., Bldg. 40, Wallingford CT 06492
  
  
 ---------------------------------------------------------------
 Warning -- This program may not be used in any manner that
 competes with the business of Gaussian, Inc. or will provide
 assistance to any competitor of Gaussian, Inc.  The licensee
 of this program is prohibited from giving any competitor of
 Gaussian, Inc. access to this program.  By using this program,
 the user acknowledges that Gaussian, Inc. is engaged in the
 business of creating and licensing software in the field of
 computational chemistry and represents and warrants to the
 licensee that it is not a competitor of Gaussian, Inc. and that
 it will not use this program in any manner prohibited above.
 ---------------------------------------------------------------
  

 Cite this work as:
 Gaussian 16, Revision C.01,
 M. J. Frisch, G. W. Trucks, H. B. Schlegel, G. E. Scuseria, 
 M. A. Robb, J. R. Cheeseman, G. Scalmani, V. Barone, 
 G. A. Petersson, H. Nakatsuji, X. Li, M. Caricato, A. V. Marenich, 
 J. Bloino, B. G. Janesko, R. Gomperts, B. Mennucci, H. P. Hratchian, 
 J. V. Ortiz, A. F. Izmaylov, J. L. Sonnenberg, D. Williams-Young, 
 F. Ding, F. Lipparini, F. Egidi, J. Goings, B. Peng, A. Petrone, 
 T. Henderson, D. Ranasinghe, V. G. Zakrzewski, J. Gao, N. Rega, 
 G. Zheng, W. Liang, M. Hada, M. Ehara, K. Toyota, R. Fukuda, 
 J. Hasegawa, M. Ishida, T. Nakajima, Y. Honda, O. Kitao, H. Nakai, 
 T. Vreven, K. Throssell, J. A. Montgomery, Jr., J. E. Peralta, 
 F. Ogliaro, M. J. Bearpark, J. J. Heyd, E. N. Brothers, K. N. Kudin, 
 V. N. Staroverov, T. A. Keith, R. Kobayashi, J. Normand, 
 K. Raghavachari, A. P. Rendell, J. C. Burant, S. S. Iyengar, 
 J. Tomasi, M. Cossi, J. M. Millam, M. Klene, C. Adamo, R. Cammi, 
 J. W. Ochterski, R. L. Martin, K. Morokuma, O. Farkas, 
 J. B. Foresman, and D. J. Fox, Gaussian, Inc., Wallingford CT, 2019.
 
 ******************************************
 Gaussian 16:  ES64L-G16RevC.01  3-Jul-2019
                23-Jun-2020 
 ******************************************
 %NprocShared=4
 Will use up to    4 processors via shared memory.
 %chk=checkpoint.chk
 -------------------------------------------------------
 # M06/Def2TZVP Freq=(anharmonic,ReadAnharm) Opt=CalcAll
 -------------------------------------------------------
 1/10=4,18=20,19=15,26=3,38=1,80=1/1,3;
 2/9=110,12=2,17=6,18=5,40=1/2;
 3/5=44,7=101,11=2,25=1,30=1,71=2,74=-54,140=1/1,2,3;
 4//1;
 5/5=2,38=5/2;
 8/6=4,10=90,11=11/1;
 11/6=1,8=1,9=11,15=111,16=1/1,2,10;
 10/6=1/2;
 6/7=2,8=2,9=2,10=2,18=1,28=1/1;
 7/10=1,25=1/1,2,3,16;
 1/10=4,18=20,19=15,26=3,80=1/3(3);
 2/9=110/2;
 7/8=1,9=1,25=1,44=-1,71=2,72=1/16;
 99//99;
 2/9=110/2;
 3/5=44,7=101,11=2,25=1,30=1,71=2,74=-54,140=1/1,2,3;
 4/5=5,16=3,69=1/1;
 5/5=2,38=5/2;
 8/6=4,10=90,11=11/1;
 11/6=1,8=1,9=11,15=111,16=1/1,2,10;
 10/6=1/2;
 7/10=1,25=1/1,2,3,16;
 1/10=4,18=20,19=15,26=3,80=1/3(-8);
 2/9=110/2;
 6/7=2,8=2,9=2,10=2,18=1,19=2,28=1/1;
 7/8=1,9=1,25=1,44=-1,71=1,72=1/16;
 99//99;
 --------------------------------------------
 Anharmonic frequencies for silane using VPT2
 --------------------------------------------
 Symbolic Z-matrix:
 Charge =  0 Multiplicity = 1
 Si                    0.00646   1.04427   0. 
 H                     1.49146   1.04427   0. 
 H                    -0.48854   0.0302   -0.96533 
 H                    -0.48854   2.3873   -0.39554 
 H                    -0.48854   0.7153    1.36087 
 

 GradGradGradGradGradGradGradGradGradGradGradGradGradGradGradGradGradGrad
 Berny optimization.
 Initialization pass.
                           ----------------------------
                           !    Initial Parameters    !
                           ! (Angstroms and Degrees)  !
 --------------------------                            --------------------------
 ! Name  Definition              Value          Derivative Info.                !
 --------------------------------------------------------------------------------
 ! R1    R(1,2)                  1.485          calculate D2E/DX2 analytically  !
 ! R2    R(1,3)                  1.485          calculate D2E/DX2 analytically  !
 ! R3    R(1,4)                  1.485          calculate D2E/DX2 analytically  !
 ! R4    R(1,5)                  1.485          calculate D2E/DX2 analytically  !
 ! A1    A(2,1,3)              109.4712         calculate D2E/DX2 analytically  !
 ! A2    A(2,1,4)              109.4713         calculate D2E/DX2 analytically  !
 ! A3    A(2,1,5)              109.4713         calculate D2E/DX2 analytically  !
 ! A4    A(3,1,4)              109.4713         calculate D2E/DX2 analytically  !
 ! A5    A(3,1,5)              109.471          calculate D2E/DX2 analytically  !
 ! A6    A(4,1,5)              109.4712         calculate D2E/DX2 analytically  !
 ! D1    D(2,1,4,3)            120.0001         calculate D2E/DX2 analytically  !
 ! D2    D(2,1,5,3)           -119.9999         calculate D2E/DX2 analytically  !
 ! D3    D(2,1,5,4)            120.0001         calculate D2E/DX2 analytically  !
 ! D4    D(3,1,5,4)           -120.0            calculate D2E/DX2 analytically  !
 --------------------------------------------------------------------------------
 Trust Radius=3.00D-01 FncErr=1.00D-07 GrdErr=1.00D-06 EigMax=2.50D+02 EigMin=1.00D-04
 Number of steps in this run=     24 maximum allowed number of steps=    100.
 GradGradGradGradGradGradGradGradGradGradGradGradGradGradGradGradGradGrad

                          Input orientation:                          
 ---------------------------------------------------------------------
 Center     Atomic      Atomic             Coordinates (Angstroms)
 Number     Number       Type             X           Y           Z
 ---------------------------------------------------------------------
      1         14           0        0.006460    1.044270    0.000000
      2          1           0        1.491460    1.044270    0.000000
      3          1           0       -0.488540    0.030200   -0.965330
      4          1           0       -0.488540    2.387300   -0.395540
      5          1           0       -0.488540    0.715300    1.360870
 ---------------------------------------------------------------------
                    Distance matrix (angstroms):
                    1          2          3          4          5
     1  Si   0.000000
     2  H    1.485000   0.000000
     3  H    1.485000   2.424995   0.000000
     4  H    1.484994   2.424991   2.424991   0.000000
     5  H    1.484996   2.424992   2.424988   2.424987   0.000000
 This structure is nearly, but not quite of a higher symmetry.
 Consider Symm=Loose if the higher symmetry is desired.
 Stoichiometry    H4Si
 Framework group  C1[X(H4Si)]
 Deg. of freedom     9
 Full point group                 C1      NOp   1
 Largest Abelian subgroup         C1      NOp   1
 Largest concise Abelian subgroup C1      NOp   1
                         Standard orientation:                         
 ---------------------------------------------------------------------
 Center     Atomic      Atomic             Coordinates (Angstroms)
 Number     Number       Type             X           Y           Z
 ---------------------------------------------------------------------
      1         14           0       -0.000000   -0.000000   -0.000000
      2          1           0       -0.267250   -0.000596    1.460754
      3          1           0       -0.138326    1.381068   -0.527961
      4          1           0       -0.973534   -0.890358   -0.681690
      5          1           0        1.379114   -0.490107   -0.251103
 ---------------------------------------------------------------------
 Rotational constants (GHZ):          85.2732453          85.2730599          85.2729059
 Standard basis: def2TZVP (5D, 7F)
 There are    66 symmetry adapted cartesian basis functions of A   symmetry.
 There are    61 symmetry adapted basis functions of A   symmetry.
    61 basis functions,   101 primitive gaussians,    66 cartesian basis functions
     9 alpha electrons        9 beta electrons
       nuclear repulsion energy        21.2648477976 Hartrees.
 NAtoms=    5 NActive=    5 NUniq=    5 SFac= 1.00D+00 NAtFMM=   60 NAOKFM=F Big=F
 Integral buffers will be    131072 words long.
 Raffenetti 2 integral format.
 Two-electron integral symmetry is turned on.
 One-electron integrals computed using PRISM.
   1 Symmetry operations used in ECPInt.
 ECPInt:  NShTT=     435 NPrTT=    1374 LenC2=     436 LenP2D=    1304.
 LDataN:  DoStor=T MaxTD1= 6 Len=  172
 NBasis=    61 RedAO= T EigKep=  1.01D-02  NBF=    61
 NBsUse=    61 1.00D-06 EigRej= -1.00D+00 NBFU=    61
 ExpMin= 7.01D-02 ExpMax= 4.48D+04 ExpMxC= 1.53D+03 IAcc=3 IRadAn=         5 AccDes= 0.00D+00
 Harris functional with IExCor= 1009 and IRadAn=       5 diagonalized for initial guess.
 HarFok:  IExCor= 1009 AccDes= 0.00D+00 IRadAn=         5 IDoV= 1 UseB2=F ITyADJ=14
 ICtDFT=  3500011 ScaDFX=  1.000000  1.000000  1.000000  1.000000
 FoFCou: FMM=F IPFlag=           0 FMFlag=      100000 FMFlg1=           0
         NFxFlg=           0 DoJE=T BraDBF=F KetDBF=T FulRan=T
         wScrn=  0.000000 ICntrl=       500 IOpCl=  0 I1Cent=   200000004 NGrid=           0
         NMat0=    1 NMatS0=      1 NMatT0=    0 NMatD0=    1 NMtDS0=    0 NMtDT0=    0
 Petite list used in FoFCou.
 Keep R1 ints in memory in canonical form, NReq=5350006.
 Requested convergence on RMS density matrix=1.00D-08 within 128 cycles.
 Requested convergence on MAX density matrix=1.00D-06.
 Requested convergence on             energy=1.00D-06.
 No special actions if energy rises.
 Integral accuracy reduced to 1.0D-05 until final iterations.
 Initial convergence to 1.0D-05 achieved.  Increase integral accuracy.
 SCF Done:  E(RM06) =  -291.876415326     A.U. after   10 cycles
            NFock= 10  Conv=0.93D-08     -V/T= 2.0027
 DoSCS=F DFT=T ScalE2(SS,OS)=  1.000000  1.000000
 Range of M.O.s used for correlation:     1    61
 NBasis=    61 NAE=     9 NBE=     9 NFC=     0 NFV=     0
 NROrb=     61 NOA=     9 NOB=     9 NVA=    52 NVB=    52
   1 Symmetry operations used in ECPInt.
 ECPInt:  NShTT=     435 NPrTT=    1374 LenC2=     436 LenP2D=    1304.
 LDataN:  DoStor=T MaxTD1= 7 Len=  274
 Symmetrizing basis deriv contribution to polar:
 IMax=3 JMax=2 DiffMx= 0.00D+00
 G2DrvN: will do     6 centers at a time, making    1 passes.
 Calling FoFCou, ICntrl=  3107 FMM=F I1Cent=   0 AccDes= 0.00D+00.
 End of G2Drv F.D. properties file   721 does not exist.
 End of G2Drv F.D. properties file   722 does not exist.
 End of G2Drv F.D. properties file   788 does not exist.
          IDoAtm=11111
          Differentiating once with respect to electric field.
                with respect to dipole field.
          Differentiating once with respect to nuclear coordinates.
 Keep R1 ints in memory in canonical form, NReq=5340683.
          There are    18 degrees of freedom in the 1st order CPHF.  IDoFFX=6 NUNeed=     3.
     15 vectors produced by pass  0 Test12= 2.60D-15 5.56D-09 XBig12= 1.99D+01 2.41D+00.
 AX will form    15 AO Fock derivatives at one time.
     15 vectors produced by pass  1 Test12= 2.60D-15 5.56D-09 XBig12= 4.94D-01 2.56D-01.
     15 vectors produced by pass  2 Test12= 2.60D-15 5.56D-09 XBig12= 3.76D-03 2.55D-02.
     15 vectors produced by pass  3 Test12= 2.60D-15 5.56D-09 XBig12= 1.10D-05 9.06D-04.
     15 vectors produced by pass  4 Test12= 2.60D-15 5.56D-09 XBig12= 3.39D-08 6.70D-05.
      9 vectors produced by pass  5 Test12= 2.60D-15 5.56D-09 XBig12= 5.30D-11 2.39D-06.
      3 vectors produced by pass  6 Test12= 2.60D-15 5.56D-09 XBig12= 4.58D-14 6.31D-08.
 InvSVY:  IOpt=1 It=  1 EMax= 1.11D-15
 Solved reduced A of dimension    87 with    15 vectors.
 Isotropic polarizability for W=    0.000000       28.30 Bohr**3.
 End of Minotr F.D. properties file   721 does not exist.
 End of Minotr F.D. properties file   722 does not exist.
 End of Minotr F.D. properties file   788 does not exist.

 **********************************************************************

            Population analysis using the SCF Density.

 **********************************************************************

 Orbital symmetries:
       Occupied  (A) (A) (A) (A) (A) (A) (A) (A) (A)
       Virtual   (A) (A) (A) (A) (A) (A) (A) (A) (A) (A) (A) (A)
                 (A) (A) (A) (A) (A) (A) (A) (A) (A) (A) (A) (A)
                 (A) (A) (A) (A) (A) (A) (A) (A) (A) (A) (A) (A)
                 (A) (A) (A) (A) (A) (A) (A) (A) (A) (A) (A) (A)
                 (A) (A) (A) (A)
 The electronic state is 1-A.
 Alpha  occ. eigenvalues --  -66.26466  -5.36593  -3.68513  -3.68513  -3.68513
 Alpha  occ. eigenvalues --   -0.55681  -0.36059  -0.36059  -0.36059
 Alpha virt. eigenvalues --    0.03888   0.03888   0.03888   0.06137   0.17000
 Alpha virt. eigenvalues --    0.17000   0.17000   0.19268   0.19268   0.28022
 Alpha virt. eigenvalues --    0.28763   0.28763   0.28763   0.42337   0.55385
 Alpha virt. eigenvalues --    0.55385   0.55385   0.90366   0.90366   0.90367
 Alpha virt. eigenvalues --    0.93333   0.93333   1.01700   1.01700   1.01701
 Alpha virt. eigenvalues --    1.07692   1.07692   1.07692   1.17519   1.30248
 Alpha virt. eigenvalues --    1.30249   1.30249   1.86181   1.86182   1.87138
 Alpha virt. eigenvalues --    1.87138   1.87139   2.05759   2.05759   2.05759
 Alpha virt. eigenvalues --    2.21996   2.37309   2.37309   2.37309   2.65032
 Alpha virt. eigenvalues --    2.86277   2.86278   2.86278   6.19716   6.19717
 Alpha virt. eigenvalues --    6.19718  10.69652
          Condensed to atoms (all electrons):
               1          2          3          4          5
     1  Si  12.209005   0.395278   0.395279   0.395277   0.395279
     2  H    0.395278   0.712997  -0.018601  -0.018600  -0.018600
     3  H    0.395279  -0.018601   0.712995  -0.018599  -0.018600
     4  H    0.395277  -0.018600  -0.018599   0.712992  -0.018601
     5  H    0.395279  -0.018600  -0.018600  -0.018601   0.712987
 Mulliken charges:
               1
     1  Si   0.209882
     2  H   -0.052473
     3  H   -0.052475
     4  H   -0.052469
     5  H   -0.052465
 Sum of Mulliken charges =  -0.00000
 Mulliken charges with hydrogens summed into heavy atoms:
               1
     1  Si  -0.000000
 APT charges:
               1
     1  Si   0.970083
     2  H   -0.243117
     3  H   -0.242382
     4  H   -0.242752
     5  H   -0.241833
 Sum of APT charges =  -0.00000
 APT charges with hydrogens summed into heavy atoms:
               1
     1  Si  -0.000000
 Electronic spatial extent (au):  <R**2>=             68.2061
 Charge=             -0.0000 electrons
 Dipole moment (field-independent basis, Debye):
    X=             -0.0000    Y=              0.0000    Z=             -0.0000  Tot=              0.0000
 Quadrupole moment (field-independent basis, Debye-Ang):
   XX=            -16.4570   YY=            -16.4571   ZZ=            -16.4571
   XY=              0.0000   XZ=              0.0000   YZ=              0.0000
 Traceless Quadrupole moment (field-independent basis, Debye-Ang):
   XX=              0.0000   YY=             -0.0000   ZZ=              0.0000
   XY=              0.0000   XZ=              0.0000   YZ=              0.0000
 Octapole moment (field-independent basis, Debye-Ang**2):
  XXX=             -0.7636  YYY=             -0.8236  ZZZ=             -1.1996  XYY=              0.3203
  XXY=              0.7958  XXZ=              0.4682  XZZ=              0.4431  YZZ=              0.0277
  YYZ=              0.7313  XYZ=              0.1456
 Hexadecapole moment (field-independent basis, Debye-Ang**3):
 XXXX=            -41.9438 YYYY=            -41.9667 ZZZZ=            -41.9061 XXXY=             -0.0539
 XXXZ=             -0.0064 YYYX=              0.0185 YYYZ=             -0.1014 ZZZX=             -0.0606
 ZZZY=              0.0098 XXYY=            -14.0115 XXZZ=            -14.0723 YYZZ=            -14.0496
 XXYZ=              0.0917 YYXZ=              0.0671 ZZXY=              0.0354
 N-N= 2.126484779763D+01 E-N=-7.368462835781D+02  KE= 2.911035908497D+02
  Exact polarizability:      28.295       0.001      28.276       0.023       0.013      28.340
 Approx polarizability:      36.158       0.000      36.158      -0.000      -0.000      36.158
   1 Symmetry operations used in ECPInt.
 ECPInt:  NShTT=     435 NPrTT=    1374 LenC2=     436 LenP2D=    1304.
 LDataN:  DoStor=T MaxTD1= 8 Len=  415
 Calling FoFJK, ICntrl=    100127 FMM=F ISym2X=0 I1Cent= 0 IOpClX= 0 NMat=1 NMatS=1 NMatT=0.
 ***** Axes restored to original set *****
 -------------------------------------------------------------------
 Center     Atomic                   Forces (Hartrees/Bohr)
 Number     Number              X              Y              Z
 -------------------------------------------------------------------
      1       14          -0.000000071   -0.000011203   -0.000007489
      2        1          -0.003373855   -0.000001525   -0.000001767
      3        1           0.001128981    0.002307320    0.002196362
      4        1           0.001120309   -0.003044715    0.000902966
      5        1           0.001124635    0.000750123   -0.003090072
 -------------------------------------------------------------------
 Cartesian Forces:  Max     0.003373855 RMS     0.001742071
 FormGI is forming the generalized inverse of G from B-inverse, IUseBI=4.

 GradGradGradGradGradGradGradGradGradGradGradGradGradGradGradGradGradGrad
 Berny optimization.
 Internal  Forces:  Max     0.003379693 RMS     0.001803213
 Search for a local minimum.
 Step number   1 out of a maximum of   24
 All quantities printed in internal units (Hartrees-Bohrs-Radians)
 Mixed Optimization -- RFO/linear search
 Second derivative matrix not updated -- analytic derivatives used.
 The second derivative matrix:
                          R1        R2        R3        R4        A1
           R1           0.18557
           R2           0.00199   0.18584
           R3           0.00199   0.00201   0.18589
           R4           0.00201   0.00200   0.00202   0.18604
           A1           0.00090   0.00091  -0.00056  -0.00121   0.01501
           A2           0.00138  -0.00036   0.00156  -0.00265  -0.00555
           A3           0.00283  -0.00222  -0.00246   0.00187  -0.00952
           A4          -0.00037   0.00142   0.00154  -0.00263  -0.00555
           A5          -0.00223   0.00276  -0.00246   0.00182  -0.00953
           A6          -0.00250  -0.00250   0.00239   0.00281   0.01514
           D1           0.00171   0.00176   0.00121  -0.00472   0.01159
           D2          -0.00147  -0.00144   0.00370  -0.00077  -0.00672
           D3           0.00189  -0.00334   0.00187  -0.00038  -0.00335
           D4           0.00335  -0.00190  -0.00184   0.00039   0.00337
                          A2        A3        A4        A5        A6
           A2           0.02942
           A3          -0.01721   0.05737
           A4           0.00044   0.01487   0.02937
           A5           0.01488  -0.02595  -0.01718   0.05737
           A6          -0.02198  -0.01957  -0.02194  -0.01959   0.06794
           D1           0.01149  -0.01309   0.01145  -0.01308  -0.00836
           D2           0.00822  -0.00758   0.00822  -0.00757   0.00544
           D3           0.01203   0.00208  -0.00380  -0.00966   0.00270
           D4           0.00381   0.00966  -0.01202  -0.00209  -0.00274
                          D1        D2        D3        D4
           D1           0.02824
           D2           0.00183   0.01751
           D3           0.00094   0.00875   0.01766
           D4          -0.00090  -0.00876   0.00891   0.01767
 ITU=  0
     Eigenvalues ---    0.03529   0.04018   0.06303   0.09821   0.09931
     Eigenvalues ---    0.18414   0.18433   0.18458   0.19184
 RFO step:  Lambda=-2.36999858D-04 EMin= 3.52873411D-02
 Linear search not attempted -- first point.
 Iteration  1 RMS(Cart)=  0.00938806 RMS(Int)=  0.00000017
 Iteration  2 RMS(Cart)=  0.00000024 RMS(Int)=  0.00000000
 Variable       Old X    -DE/DX   Delta X   Delta X   Delta X     New X
                                 (Linear)    (Quad)   (Total)
    R1        2.80624  -0.00337   0.00000  -0.01759  -0.01759   2.78865
    R2        2.80624  -0.00338   0.00000  -0.01760  -0.01760   2.78865
    R3        2.80623  -0.00337   0.00000  -0.01753  -0.01753   2.78871
    R4        2.80624  -0.00337   0.00000  -0.01754  -0.01754   2.78870
    A1        1.91063  -0.00000   0.00000  -0.00004  -0.00004   1.91059
    A2        1.91063   0.00000   0.00000   0.00002   0.00002   1.91066
    A3        1.91063   0.00000   0.00000   0.00001   0.00001   1.91064
    A4        1.91063   0.00000   0.00000   0.00004   0.00004   1.91068
    A5        1.91063   0.00000   0.00000   0.00002   0.00002   1.91065
    A6        1.91063  -0.00001   0.00000  -0.00006  -0.00006   1.91057
    D1        2.09440   0.00000   0.00000  -0.00001  -0.00001   2.09439
    D2       -2.09439   0.00000   0.00000   0.00003   0.00003  -2.09437
    D3        2.09440  -0.00000   0.00000  -0.00000  -0.00000   2.09439
    D4       -2.09439  -0.00000   0.00000  -0.00003  -0.00003  -2.09443
         Item               Value     Threshold  Converged?
 Maximum Force            0.003380     0.000450     NO 
 RMS     Force            0.001803     0.000300     NO 
 Maximum Displacement     0.017589     0.001800     NO 
 RMS     Displacement     0.009388     0.001200     NO 
 Predicted change in Energy=-1.186463D-04
 GradGradGradGradGradGradGradGradGradGradGradGradGradGradGradGradGradGrad

                          Input orientation:                          
 ---------------------------------------------------------------------
 Center     Atomic      Atomic             Coordinates (Angstroms)
 Number     Number       Type             X           Y           Z
 ---------------------------------------------------------------------
      1         14           0        0.006462    1.044263   -0.000013
      2          1           0        1.482153    1.044241   -0.000022
      3          1           0       -0.485401    0.036535   -0.959288
      4          1           0       -0.485459    2.378915   -0.393034
      5          1           0       -0.485454    0.717386    1.352358
 ---------------------------------------------------------------------
                    Distance matrix (angstroms):
                    1          2          3          4          5
     1  Si   0.000000
     2  H    1.475690   0.000000
     3  H    1.475687   2.409757   0.000000
     4  H    1.475720   2.409836   2.409852   0.000000
     5  H    1.475716   2.409822   2.409827   2.409787   0.000000
 Stoichiometry    H4Si
 Framework group  C1[X(H4Si)]
 Deg. of freedom     9
 Full point group                 C1      NOp   1
 Largest Abelian subgroup         C1      NOp   1
 Largest concise Abelian subgroup C1      NOp   1
                         Standard orientation:                         
 ---------------------------------------------------------------------
 Center     Atomic      Atomic             Coordinates (Angstroms)
 Number     Number       Type             X           Y           Z
 ---------------------------------------------------------------------
      1         14           0       -0.000003   -0.000002   -0.000002
      2          1           0       -0.774561   -0.308288    1.217653
      3          1           0       -0.912993    0.079901   -1.156600
      4          1           0        0.995975   -1.063933   -0.232006
      5          1           0        0.691621    1.292345    0.170977
 ---------------------------------------------------------------------
 Rotational constants (GHZ):          86.3536118          86.3495780          86.3485070
 Standard basis: def2TZVP (5D, 7F)
 There are    66 symmetry adapted cartesian basis functions of A   symmetry.
 There are    61 symmetry adapted basis functions of A   symmetry.
    61 basis functions,   101 primitive gaussians,    66 cartesian basis functions
     9 alpha electrons        9 beta electrons
       nuclear repulsion energy        21.3987754530 Hartrees.
 NAtoms=    5 NActive=    5 NUniq=    5 SFac= 1.00D+00 NAtFMM=   60 NAOKFM=F Big=F
 Integral buffers will be    131072 words long.
 Raffenetti 2 integral format.
 Two-electron integral symmetry is turned on.
 One-electron integrals computed using PRISM.
   1 Symmetry operations used in ECPInt.
 ECPInt:  NShTT=     435 NPrTT=    1374 LenC2=     436 LenP2D=    1304.
 LDataN:  DoStor=T MaxTD1= 6 Len=  172
 NBasis=    61 RedAO= T EigKep=  9.85D-03  NBF=    61
 NBsUse=    61 1.00D-06 EigRej= -1.00D+00 NBFU=    61
 Initial guess from the checkpoint file:  "checkpoint.chk"
 B after Tr=    -0.000000    0.000000   -0.000000
         Rot=    0.726482    0.162950    0.211785   -0.633102 Ang=  86.82 deg.
 Keep R1 ints in memory in canonical form, NReq=5350006.
 Requested convergence on RMS density matrix=1.00D-08 within 128 cycles.
 Requested convergence on MAX density matrix=1.00D-06.
 Requested convergence on             energy=1.00D-06.
 No special actions if energy rises.
 SCF Done:  E(RM06) =  -291.876533671     A.U. after    7 cycles
            NFock=  7  Conv=0.13D-08     -V/T= 2.0025
 DoSCS=F DFT=T ScalE2(SS,OS)=  1.000000  1.000000
 Range of M.O.s used for correlation:     1    61
 NBasis=    61 NAE=     9 NBE=     9 NFC=     0 NFV=     0
 NROrb=     61 NOA=     9 NOB=     9 NVA=    52 NVB=    52
   1 Symmetry operations used in ECPInt.
 ECPInt:  NShTT=     435 NPrTT=    1374 LenC2=     436 LenP2D=    1304.
 LDataN:  DoStor=T MaxTD1= 7 Len=  274
 Symmetrizing basis deriv contribution to polar:
 IMax=3 JMax=2 DiffMx= 0.00D+00
 G2DrvN: will do     6 centers at a time, making    1 passes.
 Calling FoFCou, ICntrl=  3107 FMM=F I1Cent=   0 AccDes= 0.00D+00.
 End of G2Drv F.D. properties file   721 does not exist.
 End of G2Drv F.D. properties file   722 does not exist.
 End of G2Drv F.D. properties file   788 does not exist.
          IDoAtm=11111
          Differentiating once with respect to electric field.
                with respect to dipole field.
          Differentiating once with respect to nuclear coordinates.
 Keep R1 ints in memory in canonical form, NReq=5340683.
          There are    18 degrees of freedom in the 1st order CPHF.  IDoFFX=6 NUNeed=     3.
     15 vectors produced by pass  0 Test12= 2.60D-15 5.56D-09 XBig12= 1.95D+01 2.22D+00.
 AX will form    15 AO Fock derivatives at one time.
     15 vectors produced by pass  1 Test12= 2.60D-15 5.56D-09 XBig12= 4.80D-01 2.40D-01.
     15 vectors produced by pass  2 Test12= 2.60D-15 5.56D-09 XBig12= 3.60D-03 2.34D-02.
     15 vectors produced by pass  3 Test12= 2.60D-15 5.56D-09 XBig12= 1.07D-05 9.72D-04.
     15 vectors produced by pass  4 Test12= 2.60D-15 5.56D-09 XBig12= 3.10D-08 6.05D-05.
      9 vectors produced by pass  5 Test12= 2.60D-15 5.56D-09 XBig12= 5.16D-11 2.10D-06.
      3 vectors produced by pass  6 Test12= 2.60D-15 5.56D-09 XBig12= 4.90D-14 5.40D-08.
 InvSVY:  IOpt=1 It=  1 EMax= 1.11D-15
 Solved reduced A of dimension    87 with    15 vectors.
 Isotropic polarizability for W=    0.000000       28.00 Bohr**3.
 End of Minotr F.D. properties file   721 does not exist.
 End of Minotr F.D. properties file   722 does not exist.
 End of Minotr F.D. properties file   788 does not exist.
   1 Symmetry operations used in ECPInt.
 ECPInt:  NShTT=     435 NPrTT=    1374 LenC2=     436 LenP2D=    1304.
 LDataN:  DoStor=T MaxTD1= 8 Len=  415
 Calling FoFJK, ICntrl=    100127 FMM=F ISym2X=0 I1Cent= 0 IOpClX= 0 NMat=1 NMatS=1 NMatT=0.
 ***** Axes restored to original set *****
 -------------------------------------------------------------------
 Center     Atomic                   Forces (Hartrees/Bohr)
 Number     Number              X              Y              Z
 -------------------------------------------------------------------
      1       14          -0.000003689    0.000008854    0.000008443
      2        1           0.000065345    0.000010024   -0.000008320
      3        1          -0.000025997   -0.000044600   -0.000042667
      4        1          -0.000021536    0.000041497   -0.000020534
      5        1          -0.000014124   -0.000015775    0.000063078
 -------------------------------------------------------------------
 Cartesian Forces:  Max     0.000065345 RMS     0.000032785
 FormGI is forming the generalized inverse of G from B-inverse, IUseBI=4.

 GradGradGradGradGradGradGradGradGradGradGradGradGradGradGradGradGradGrad
 Berny optimization.
 Using GEDIIS/GDIIS optimizer.
 Internal  Forces:  Max     0.000066857 RMS     0.000033693
 Search for a local minimum.
 Step number   2 out of a maximum of   24
 All quantities printed in internal units (Hartrees-Bohrs-Radians)
 Mixed Optimization -- En-DIIS/RFO-DIIS
 Second derivative matrix not updated -- analytic derivatives used.
 DE= -1.18D-04 DEPred=-1.19D-04 R= 9.97D-01
 TightC=F SS=  1.41D+00  RLast= 3.51D-02 DXNew= 5.0454D-01 1.0538D-01
 Trust test= 9.97D-01 RLast= 3.51D-02 DXMaxT set to 3.00D-01
 The second derivative matrix:
                          R1        R2        R3        R4        A1
           R1           0.19321
           R2           0.00207   0.19309
           R3           0.00205   0.00204   0.19306
           R4           0.00207   0.00206   0.00206   0.19321
           A1           0.00095   0.00093  -0.00057  -0.00125   0.01509
           A2           0.00139  -0.00038   0.00163  -0.00267  -0.00562
           A3           0.00282  -0.00224  -0.00250   0.00195  -0.00957
           A4          -0.00038   0.00145   0.00155  -0.00266  -0.00560
           A5          -0.00225   0.00277  -0.00248   0.00191  -0.00957
           A6          -0.00252  -0.00253   0.00238   0.00273   0.01525
           D1           0.00178   0.00179   0.00125  -0.00480   0.01162
           D2          -0.00150  -0.00146   0.00376  -0.00082  -0.00677
           D3           0.00189  -0.00338   0.00192  -0.00041  -0.00339
           D4           0.00339  -0.00192  -0.00184   0.00042   0.00338
                          A2        A3        A4        A5        A6
           A2           0.02966
           A3          -0.01734   0.05767
           A4           0.00038   0.01500   0.02965
           A5           0.01502  -0.02612  -0.01735   0.05776
           A6          -0.02210  -0.01964  -0.02207  -0.01974   0.06830
           D1           0.01152  -0.01315   0.01153  -0.01315  -0.00837
           D2           0.00830  -0.00761   0.00830  -0.00766   0.00543
           D3           0.01217   0.00205  -0.00387  -0.00968   0.00273
           D4           0.00387   0.00965  -0.01217  -0.00203  -0.00271
                          D1        D2        D3        D4
           D1           0.02835
           D2           0.00188   0.01764
           D3           0.00093   0.00883   0.01783
           D4          -0.00094  -0.00880   0.00900   0.01780
 ITU=  1  0
 Use linear search instead of GDIIS.
     Eigenvalues ---    0.03547   0.04056   0.06341   0.09890   0.09991
     Eigenvalues ---    0.19148   0.19155   0.19171   0.19932
 RFO step:  Lambda= 0.00000000D+00 EMin= 3.54723935D-02
 Quintic linear search produced a step of -0.01771.
 Iteration  1 RMS(Cart)=  0.00018204 RMS(Int)=  0.00000001
 Iteration  2 RMS(Cart)=  0.00000001 RMS(Int)=  0.00000000
 Variable       Old X    -DE/DX   Delta X   Delta X   Delta X     New X
                                 (Linear)    (Quad)   (Total)
    R1        2.78865   0.00007   0.00031   0.00002   0.00033   2.78898
    R2        2.78865   0.00007   0.00031   0.00003   0.00034   2.78898
    R3        2.78871   0.00005   0.00031  -0.00006   0.00025   2.78896
    R4        2.78870   0.00007   0.00031   0.00001   0.00032   2.78902
    A1        1.91059   0.00000   0.00000   0.00004   0.00005   1.91064
    A2        1.91066  -0.00001  -0.00000  -0.00007  -0.00007   1.91059
    A3        1.91064   0.00000  -0.00000   0.00003   0.00003   1.91067
    A4        1.91068  -0.00001  -0.00000  -0.00012  -0.00012   1.91056
    A5        1.91065   0.00000  -0.00000   0.00002   0.00002   1.91068
    A6        1.91057   0.00001   0.00000   0.00009   0.00009   1.91067
    D1        2.09439  -0.00001   0.00000  -0.00006  -0.00006   2.09433
    D2       -2.09437  -0.00000  -0.00000  -0.00009  -0.00009  -2.09445
    D3        2.09439  -0.00000   0.00000  -0.00001  -0.00001   2.09438
    D4       -2.09443   0.00000   0.00000   0.00008   0.00008  -2.09435
         Item               Value     Threshold  Converged?
 Maximum Force            0.000067     0.000450     YES
 RMS     Force            0.000034     0.000300     YES
 Maximum Displacement     0.000363     0.001800     YES
 RMS     Displacement     0.000182     0.001200     YES
 Predicted change in Energy=-4.095189D-08
 Optimization completed.
    -- Stationary point found.
                           ----------------------------
                           !   Optimized Parameters   !
                           ! (Angstroms and Degrees)  !
 --------------------------                            --------------------------
 ! Name  Definition              Value          Derivative Info.                !
 --------------------------------------------------------------------------------
 ! R1    R(1,2)                  1.4757         -DE/DX =    0.0001              !
 ! R2    R(1,3)                  1.4757         -DE/DX =    0.0001              !
 ! R3    R(1,4)                  1.4757         -DE/DX =    0.0001              !
 ! R4    R(1,5)                  1.4757         -DE/DX =    0.0001              !
 ! A1    A(2,1,3)              109.469          -DE/DX =    0.0                 !
 ! A2    A(2,1,4)              109.4725         -DE/DX =    0.0                 !
 ! A3    A(2,1,5)              109.4718         -DE/DX =    0.0                 !
 ! A4    A(3,1,4)              109.4738         -DE/DX =    0.0                 !
 ! A5    A(3,1,5)              109.4723         -DE/DX =    0.0                 !
 ! A6    A(4,1,5)              109.4678         -DE/DX =    0.0                 !
 ! D1    D(2,1,4,3)            119.9997         -DE/DX =    0.0                 !
 ! D2    D(2,1,5,3)           -119.9983         -DE/DX =    0.0                 !
 ! D3    D(2,1,5,4)            119.9999         -DE/DX =    0.0                 !
 ! D4    D(3,1,5,4)           -120.0018         -DE/DX =    0.0                 !
 --------------------------------------------------------------------------------
 GradGradGradGradGradGradGradGradGradGradGradGradGradGradGradGradGradGrad

                          Input orientation:                          
 ---------------------------------------------------------------------
 Center     Atomic      Atomic             Coordinates (Angstroms)
 Number     Number       Type             X           Y           Z
 ---------------------------------------------------------------------
      1         14           0        0.006462    1.044263   -0.000013
      2          1           0        1.482153    1.044241   -0.000022
      3          1           0       -0.485401    0.036535   -0.959288
      4          1           0       -0.485459    2.378915   -0.393034
      5          1           0       -0.485454    0.717386    1.352358
 ---------------------------------------------------------------------
                    Distance matrix (angstroms):
                    1          2          3          4          5
     1  Si   0.000000
     2  H    1.475690   0.000000
     3  H    1.475687   2.409757   0.000000
     4  H    1.475720   2.409836   2.409852   0.000000
     5  H    1.475716   2.409822   2.409827   2.409787   0.000000
 Stoichiometry    H4Si
 Framework group  C1[X(H4Si)]
 Deg. of freedom     9
 Full point group                 C1      NOp   1
 Largest Abelian subgroup         C1      NOp   1
 Largest concise Abelian subgroup C1      NOp   1
                         Standard orientation:                         
 ---------------------------------------------------------------------
 Center     Atomic      Atomic             Coordinates (Angstroms)
 Number     Number       Type             X           Y           Z
 ---------------------------------------------------------------------
      1         14           0       -0.000003   -0.000002   -0.000002
      2          1           0       -0.774561   -0.308288    1.217653
      3          1           0       -0.912993    0.079901   -1.156600
      4          1           0        0.995975   -1.063933   -0.232006
      5          1           0        0.691621    1.292345    0.170977
 ---------------------------------------------------------------------
 Rotational constants (GHZ):          86.3536118          86.3495780          86.3485070

 **********************************************************************

            Population analysis using the SCF Density.

 **********************************************************************

 Orbital symmetries:
       Occupied  (A) (A) (A) (A) (A) (A) (A) (A) (A)
       Virtual   (A) (A) (A) (A) (A) (A) (A) (A) (A) (A) (A) (A)
                 (A) (A) (A) (A) (A) (A) (A) (A) (A) (A) (A) (A)
                 (A) (A) (A) (A) (A) (A) (A) (A) (A) (A) (A) (A)
                 (A) (A) (A) (A) (A) (A) (A) (A) (A) (A) (A) (A)
                 (A) (A) (A) (A)
 The electronic state is 1-A.
 Alpha  occ. eigenvalues --  -66.26165  -5.36371  -3.68286  -3.68286  -3.68286
 Alpha  occ. eigenvalues --   -0.55829  -0.36140  -0.36139  -0.36139
 Alpha virt. eigenvalues --    0.03958   0.03958   0.03959   0.06360   0.17024
 Alpha virt. eigenvalues --    0.17024   0.17024   0.19291   0.19292   0.28186
 Alpha virt. eigenvalues --    0.28776   0.28776   0.28776   0.42678   0.55676
 Alpha virt. eigenvalues --    0.55677   0.55677   0.90505   0.90505   0.90505
 Alpha virt. eigenvalues --    0.93366   0.93366   1.02020   1.02020   1.02021
 Alpha virt. eigenvalues --    1.07753   1.07754   1.07755   1.17318   1.30286
 Alpha virt. eigenvalues --    1.30287   1.30288   1.86855   1.86859   1.87773
 Alpha virt. eigenvalues --    1.87774   1.87779   2.06482   2.06485   2.06488
 Alpha virt. eigenvalues --    2.22951   2.38468   2.38469   2.38471   2.65693
 Alpha virt. eigenvalues --    2.86672   2.86674   2.86677   6.20494   6.20496
 Alpha virt. eigenvalues --    6.20498  10.73449
          Condensed to atoms (all electrons):
               1          2          3          4          5
     1  Si  12.200497   0.396739   0.396736   0.396736   0.396739
     2  H    0.396739   0.713106  -0.018906  -0.018902  -0.018901
     3  H    0.396736  -0.018906   0.713112  -0.018903  -0.018901
     4  H    0.396736  -0.018902  -0.018903   0.713118  -0.018905
     5  H    0.396739  -0.018901  -0.018901  -0.018905   0.713103
 Mulliken charges:
               1
     1  Si   0.212552
     2  H   -0.053135
     3  H   -0.053139
     4  H   -0.053144
     5  H   -0.053134
 Sum of Mulliken charges =  -0.00000
 Mulliken charges with hydrogens summed into heavy atoms:
               1
     1  Si  -0.000000
 APT charges:
               1
     1  Si   0.970339
     2  H   -0.242962
     3  H   -0.242194
     4  H   -0.242804
     5  H   -0.242380
 Sum of APT charges =  -0.00000
 APT charges with hydrogens summed into heavy atoms:
               1
     1  Si  -0.000000
 Electronic spatial extent (au):  <R**2>=             67.7203
 Charge=              0.0000 electrons
 Dipole moment (field-independent basis, Debye):
    X=             -0.0001    Y=             -0.0000    Z=             -0.0001  Tot=              0.0001
 Quadrupole moment (field-independent basis, Debye-Ang):
   XX=            -16.4155   YY=            -16.4155   ZZ=            -16.4154
   XY=             -0.0000   XZ=              0.0000   YZ=             -0.0000
 Traceless Quadrupole moment (field-independent basis, Debye-Ang):
   XX=             -0.0000   YY=             -0.0000   ZZ=              0.0000
   XY=             -0.0000   XZ=              0.0000   YZ=             -0.0000
 Octapole moment (field-independent basis, Debye-Ang**2):
  XXX=             -0.0439  YYY=             -0.4341  ZZZ=             -0.1176  XYY=             -1.0333
  XXY=              0.2605  XXZ=              0.1791  XZZ=              1.0767  YZZ=              0.1734
  YYZ=             -0.0616  XYZ=             -0.3629
 Hexadecapole moment (field-independent basis, Debye-Ang**3):
 XXXX=            -41.7712 YYYY=            -41.5792 ZZZZ=            -41.5875 XXXY=             -0.0570
 XXXZ=              0.0150 YYYX=              0.0332 YYYZ=              0.0644 ZZZX=              0.0006
 ZZZY=             -0.0696 XXYY=            -13.7942 XXZZ=            -13.7848 YYZZ=            -13.9754
 XXYZ=              0.0051 YYXZ=             -0.0155 ZZXY=              0.0237
 N-N= 2.139877545301D+01 E-N=-7.371638216174D+02  KE= 2.911416484136D+02
  Exact polarizability:      28.003       0.032      27.979      -0.010      -0.037      28.012
 Approx polarizability:      35.706      -0.000      35.705      -0.000       0.000      35.705
 Rotating derivatives to standard orientation.
 Full mass-weighted force constant matrix:
 Low frequencies ---  -78.2481  -18.8047   -0.0046   -0.0022   -0.0017   54.5753
 Low frequencies ---  938.2320  938.9784  940.0049
 Diagonal vibrational polarizability:
        4.9508234       4.9387917       4.9403487
 Harmonic frequencies (cm**-1), IR intensities (KM/Mole), Raman scattering
 activities (A**4/AMU), depolarization ratios for plane and unpolarized
 incident light, reduced masses (AMU), force constants (mDyne/A),
 and normal coordinates:
                      1                      2                      3
                      A                      A                      A
 Frequencies --    938.2306               938.9776               940.0048
 Red. masses --      1.0957                 1.0956                 1.0956
 Frc consts  --      0.5683                 0.5691                 0.5704
 IR Inten    --    141.3384               140.7149               141.1924
  Atom  AN      X      Y      Z        X      Y      Z        X      Y      Z
     1  14    -0.05  -0.03   0.02     0.01  -0.04  -0.04    -0.03   0.03  -0.04
     2   1     0.25   0.20   0.24     0.03   0.52   0.13     0.45  -0.22   0.21
     3   1     0.39   0.32  -0.30    -0.26   0.45   0.23    -0.05  -0.27  -0.02
     4   1     0.40   0.41  -0.13     0.19   0.08   0.31     0.07  -0.02   0.49
     5   1     0.26  -0.14  -0.23    -0.33   0.11   0.36     0.35  -0.24   0.45
                      4                      5                      6
                      A                      A                      A
 Frequencies --    987.3012               988.2418              2285.9584
 Red. masses --      1.0079                 1.0079                 1.0098
 Frc consts  --      0.5788                 0.5799                 3.1089
 IR Inten    --      0.0548                 0.0792                 5.6383
  Atom  AN      X      Y      Z        X      Y      Z        X      Y      Z
     1  14     0.00  -0.00  -0.00     0.00   0.00  -0.00     0.00  -0.01  -0.01
     2   1    -0.38  -0.15  -0.28     0.20  -0.46   0.01     0.20   0.08  -0.32
     3   1    -0.39   0.07   0.31     0.05   0.49  -0.01     0.34  -0.03   0.43
     4   1     0.36   0.30   0.19    -0.09  -0.19   0.47    -0.42   0.45   0.10
     5   1     0.40  -0.19  -0.21    -0.17   0.15  -0.43    -0.18  -0.34  -0.05
                      7                      8                      9
                      A                      A                      A
 Frequencies --   2287.8976              2288.2774              2288.5862
 Red. masses --      1.0510                 1.0492                 1.0512
 Frc consts  --      3.2413                 3.2370                 3.2438
 IR Inten    --    122.8370               118.8699               124.3142
  Atom  AN      X      Y      Z        X      Y      Z        X      Y      Z
     1  14    -0.03   0.02  -0.02    -0.00  -0.02  -0.03     0.03   0.02  -0.02
     2   1    -0.03   0.00   0.02    -0.30  -0.13   0.47    -0.38  -0.15   0.60
     3   1     0.44  -0.03   0.56     0.26  -0.03   0.32    -0.03   0.01  -0.06
     4   1     0.46  -0.50  -0.12    -0.24   0.25   0.04    -0.05   0.07   0.01
     5   1    -0.07  -0.10  -0.02     0.29   0.54   0.06    -0.31  -0.60  -0.09

 -------------------
 - Thermochemistry -
 -------------------
 Temperature   298.150 Kelvin.  Pressure   1.00000 Atm.
 Atom     1 has atomic number 14 and mass  27.97693
 Atom     2 has atomic number  1 and mass   1.00783
 Atom     3 has atomic number  1 and mass   1.00783
 Atom     4 has atomic number  1 and mass   1.00783
 Atom     5 has atomic number  1 and mass   1.00783
 Molecular mass:    32.00823 amu.
 Principal axes and moments of inertia in atomic units:
                           1         2         3
     Eigenvalues --    20.89943  20.90041  20.90066
           X            1.00000  -0.00000  -0.00000
           Y            0.00000   1.00000  -0.00000
           Z            0.00000   0.00000   1.00000
 This molecule is an asymmetric top.
 Rotational symmetry number  1.
 Rotational temperatures (Kelvin)      4.14432     4.14413     4.14407
 Rotational constants (GHZ):          86.35361    86.34958    86.34851
 Zero-point vibrational energy      83400.5 (Joules/Mol)
                                   19.93320 (Kcal/Mol)
 Vibrational temperatures:   1349.90  1350.98  1352.46  1420.51  1421.86
          (Kelvin)           3288.98  3291.77  3292.32  3292.77
 
 Zero-point correction=                           0.031766 (Hartree/Particle)
 Thermal correction to Energy=                    0.034816
 Thermal correction to Enthalpy=                  0.035760
 Thermal correction to Gibbs Free Energy=         0.010225
 Sum of electronic and zero-point Energies=           -291.844768
 Sum of electronic and thermal Energies=              -291.841718
 Sum of electronic and thermal Enthalpies=            -291.840774
 Sum of electronic and thermal Free Energies=         -291.866309
 
                     E (Thermal)             CV                S
                      KCal/Mol        Cal/Mol-Kelvin    Cal/Mol-Kelvin
 Total                   21.847              8.105             53.743
 Electronic               0.000              0.000              0.000
 Translational            0.889              2.981             36.322
 Rotational               0.889              2.981             16.864
 Vibrational             20.070              2.144              0.557
                       Q            Log10(Q)             Ln(Q)
 Total Bot       0.198074D-04         -4.703172        -10.829453
 Total V=0       0.809031D+10          9.907965         22.813933
 Vib (Bot)       0.257283D-14        -14.589588        -33.593769
 Vib (V=0)       0.105087D+01          0.021549          0.049618
 Electronic      0.100000D+01          0.000000          0.000000
 Translational   0.711781D+07          6.852346         15.778111
 Rotational      0.108161D+04          3.034070          6.986205
 ***** Axes restored to original set *****
 -------------------------------------------------------------------
 Center     Atomic                   Forces (Hartrees/Bohr)
 Number     Number              X              Y              Z
 -------------------------------------------------------------------
      1       14          -0.000003689    0.000008854    0.000008443
      2        1           0.000065345    0.000010024   -0.000008320
      3        1          -0.000025997   -0.000044600   -0.000042667
      4        1          -0.000021536    0.000041497   -0.000020534
      5        1          -0.000014124   -0.000015775    0.000063078
 -------------------------------------------------------------------
 Cartesian Forces:  Max     0.000065345 RMS     0.000032785

 ----------------------------------------------------------------------

 Electric dipole moment (input orientation):
 (Debye = 10**-18 statcoulomb cm , SI units = C m)
                  (au)            (Debye)         (10**-30 SI)
   Tot        0.326612D-04      0.830164D-04      0.276913D-03
   x          0.000000D+00      0.000000D+00      0.000000D+00
   y         -0.205825D-04     -0.523156D-04     -0.174506D-03
   z         -0.253597D-04     -0.644578D-04     -0.215008D-03

 Dipole polarizability, Alpha (input orientation).
 (esu units = cm**3 , SI units = C**2 m**2 J**-1)
 Alpha(0;0):
               (au)            (10**-24 esu)      (10**-40 SI)
   iso        0.279983D+02      0.414892D+01      0.461630D+01
   aniso      0.912396D-01      0.135203D-01      0.150434D-01
   xx         0.280370D+02      0.415465D+01      0.462267D+01
   yx         0.228771D-01      0.339003D-02      0.377192D-02
   yy         0.279734D+02      0.414522D+01      0.461218D+01
   zx        -0.277115D-01     -0.410642D-02     -0.456901D-02
   zy         0.181908D-01      0.269560D-02      0.299926D-02
   zz         0.279846D+02      0.414689D+01      0.461404D+01

 ----------------------------------------------------------------------

 Dipole orientation:
    14         -0.05085979         -1.53465262         -1.23959543
     1          2.72499132         -1.44557816         -1.49116935
     1         -0.75170511         -1.22072936          1.44122718
     1         -0.98971801         -3.99235558         -2.16432346
     1         -1.18703960          0.52009322         -2.74424065

 Electric dipole moment (dipole orientation):
 (Debye = 10**-18 statcoulomb cm , SI units = C m)
                  (au)            (Debye)         (10**-30 SI)
   Tot        0.327949D-04      0.833564D-04      0.278047D-03
   x          0.000000D+00      0.000000D+00      0.000000D+00
   y          0.000000D+00      0.000000D+00      0.000000D+00
   z          0.327949D-04      0.833564D-04      0.278047D-03

 Dipole polarizability, Alpha (dipole orientation).
 (esu units = cm**3 , SI units = C**2 m**2 J**-1)
 Alpha(0;0):
               (au)            (10**-24 esu)      (10**-40 SI)
   iso        0.279983D+02      0.414892D+01      0.461630D+01
   aniso      0.912396D-01      0.135203D-01      0.150434D-01
   xx         0.280401D+02      0.415512D+01      0.462319D+01
   yx        -0.326714D-01     -0.484140D-02     -0.538679D-02
   yy         0.279578D+02      0.414293D+01      0.460963D+01
   zx         0.342856D-02      0.508060D-03      0.565292D-03
   zy         0.154198D-02      0.228498D-03      0.254239D-03
   zz         0.279970D+02      0.414872D+01      0.461608D+01

 ----------------------------------------------------------------------
 Unable to Open any file for archive entry.
 1\1\GINC-GADI-CPU-CLX-1411\Freq\RM06\def2TZVP\H4Si1\PK8622\23-Jun-2020
 \0\\# M06/Def2TZVP Freq=(anharmonic,ReadAnharm) Opt=CalcAll\\Anharmoni
 c frequencies for silane using VPT2\\0,1\Si,0.0064620721,1.0442629599,
 -0.0000131959\H,1.4821525018,1.0442411313,-0.0000218389\H,-0.485400945
 4,0.0365352107,-0.9592884788\H,-0.4854591821,2.3789151101,-0.393034153
 \H,-0.4854544464,0.717385588,1.3523576667\\Version=ES64L-G16RevC.01\St
 ate=1-A\HF=-291.8765337\RMSD=1.291e-09\RMSF=3.279e-05\ZeroPoint=0.0317
 656\Thermal=0.0348157\ETot=-291.841718\HTot=-291.8407738\GTot=-291.866
 3087\Dipole=-0.000003,-0.0000206,-0.0000254\DipoleDeriv=0.9714952,-0.0
 007126,-0.0001623,0.0017652,0.9695202,-0.0002342,-0.0009121,0.0003721,
 0.9700008,-0.2916808,0.00047,-0.0003033,0.0007545,-0.2186119,0.0006722
 ,0.0002131,0.0001594,-0.2185927,-0.2267423,-0.0159821,-0.0148868,-0.01
 71928,-0.2522968,-0.0336629,-0.0152366,-0.0315967,-0.2475418,-0.226742
 ,0.0225798,-0.0077619,0.0204332,-0.2767822,0.0167111,-0.0064922,0.0168
 85,-0.224887,-0.2263301,-0.006355,0.0231143,-0.0057601,-0.2218294,0.01
 65138,0.0224279,0.0141801,-0.2789792\Polar=28.036976,0.0228771,27.9733
 639,-0.0277115,0.0181908,27.9845978\PG=C01 [X(H4Si1)]\NImag=0\\0.31478
 875,0.00015179,0.31473388,0.00007678,-0.00004373,0.31468835,-0.1827239
 1,-0.00006708,-0.00000424,0.19321466,-0.00009508,-0.02680120,-0.000010
 12,0.00009160,0.02098158,0.00001216,-0.00001491,-0.02663794,-0.0000054
 1,-0.00002906,0.02080746,-0.04395068,-0.03549452,-0.03384843,-0.003506
 86,-0.00975070,-0.00929287,0.03991149,-0.03545213,-0.09944997,-0.06918
 550,-0.00070216,0.00190768,-0.00035262,0.03918594,0.10124918,-0.033866
 34,-0.06918339,-0.09253570,-0.00065213,-0.00034596,0.00197674,0.037404
 61,0.07642049,0.09358436,-0.04415304,0.04699737,-0.01390290,-0.0035026
 2,0.01285901,-0.00374850,0.00376966,-0.00398286,0.00114774,0.04018948,
 0.04700090,-0.15416340,0.03754409,0.00089545,0.00167110,0.00019545,0.0
 0304110,-0.00780226,0.00195037,-0.05192731,0.16165472,-0.01389106,0.03
 755289,-0.03779972,-0.00027613,0.00020249,0.00221532,0.00283838,-0.008
 24164,0.00446511,0.01533842,-0.04148534,0.03311902,-0.04396112,-0.0115
 8755,0.04767880,-0.00348127,-0.00310483,0.01303462,0.00377639,0.000951
 21,-0.00403387,0.00369652,0.00098985,-0.00400961,0.03996947,-0.0116054
 7,-0.03431931,0.03169526,-0.00021781,0.00224085,0.00020115,0.00301818,
 0.00409536,-0.00884150,-0.00394621,-0.00136017,0.01197160,0.01275131,0
 .02934326,0.04766846,0.03168913,-0.15771500,0.00093792,0.00018265,0.00
 163842,0.00289832,0.00135928,-0.00749051,0.00116525,0.00179543,-0.0019
 9973,-0.05266994,-0.03502650,0.16556682\\0.00000369,-0.00000885,-0.000
 00844,-0.00006535,-0.00001002,0.00000832,0.00002600,0.00004460,0.00004
 267,0.00002154,-0.00004150,0.00002053,0.00001412,0.00001578,-0.0000630
 8\\\@
 The archive entry for this job was punched.


 FRICTION IS A DRAG,
 AND ENTROPY AIN'T WHAT IT USED TO BE.
 Job cpu time:       0 days  0 hours  1 minutes 52.4 seconds.
 Elapsed time:       0 days  0 hours  0 minutes 28.5 seconds.
 File lengths (MBytes):  RWF=      6 Int=      0 D2E=      0 Chk=     76 Scr=      1
 Normal termination of Gaussian 16 at Tue Jun 23 15:24:06 2020.
 Link1:  Proceeding to internal job step number  2.
 ------------------------------------------------------------------
 #N Geom=AllCheck Guess=TCheck SCRF=Check GenChk RM06/def2TZVP Freq
 ------------------------------------------------------------------
 1/10=4,29=7,30=1,38=21,40=1,80=1/1,6,3;
 2/12=2,40=1/2;
 3/5=44,7=101,11=2,14=-4,25=1,30=1,70=2,71=2,74=-54,116=1,140=1/1,2,3;
 4/5=101,69=2/1;
 5/5=2,38=6,98=1/2;
 8/6=4,10=90,11=11/1;
 11/6=1,8=1,9=11,15=111,16=1/1,2,10;
 10/6=1,60=-2/2;
 6/7=2,8=2,9=2,10=2,28=1/1;
 7/10=1,25=1,71=2,72=1/1,2,3,16;
 1/38=20,80=1/6(3);
 7/8=1,25=202,44=-1,71=1,72=1,92=10/16,17;
 1/10=4,30=1,38=20,80=1/3;
 99//99;
 3/5=44,7=101,11=2,14=-2,25=1,30=1,70=5,71=2,74=-54,116=1,140=1/1,2,3;
 4/5=5,16=3,69=2/1;
 5/5=2,38=5,98=1/2;
 8/6=4,10=90,11=11/1;
 11/6=1,8=1,9=11,15=111,16=1/1,2,10;
 10/6=1,60=-2/2;
 6/7=2,8=2,9=2,10=2,28=1/1;
 7/7=1,10=1,25=1,71=1,72=1/1,2,3,16;
 1/38=20,80=1/6(-8);
 7/8=1,25=202,44=-1,71=1,72=1,92=10/16,17;
 1/10=4,30=1,38=20,80=1/3;
 99//99;
 Structure from the checkpoint file:  "checkpoint.chk"
 --------------------------------------------
 Anharmonic frequencies for silane using VPT2
 --------------------------------------------
 Charge =  0 Multiplicity = 1
 Redundant internal coordinates found in file.  (old form).
 Si,0,0.0064620721,1.0442629599,-0.0000131959
 H,0,1.4821525018,1.0442411313,-0.0000218389
 H,0,-0.4854009454,0.0365352107,-0.9592884788
 H,0,-0.4854591821,2.3789151101,-0.393034153
 H,0,-0.4854544464,0.717385588,1.3523576667
 Recover connectivity data from disk.
 Numerical evaluation of third derivatives.
 Nuclear step= 0.010000 Angstroms, electric field step= 0.000333 atomic units, NStep=1.

 GradGradGradGradGradGradGradGradGradGradGradGradGradGradGradGradGradGrad
 Berny optimization.
 Initialization pass.
                           ----------------------------
                           !    Initial Parameters    !
                           ! (Angstroms and Degrees)  !
 --------------------------                            --------------------------
 ! Name  Definition              Value          Derivative Info.                !
 --------------------------------------------------------------------------------
 ! R1    R(1,2)                  1.4757         calculate D2E/DX2 analytically  !
 ! R2    R(1,3)                  1.4757         calculate D2E/DX2 analytically  !
 ! R3    R(1,4)                  1.4757         calculate D2E/DX2 analytically  !
 ! R4    R(1,5)                  1.4757         calculate D2E/DX2 analytically  !
 ! A1    A(2,1,3)              109.469          calculate D2E/DX2 analytically  !
 ! A2    A(2,1,4)              109.4725         calculate D2E/DX2 analytically  !
 ! A3    A(2,1,5)              109.4718         calculate D2E/DX2 analytically  !
 ! A4    A(3,1,4)              109.4738         calculate D2E/DX2 analytically  !
 ! A5    A(3,1,5)              109.4723         calculate D2E/DX2 analytically  !
 ! A6    A(4,1,5)              109.4678         calculate D2E/DX2 analytically  !
 ! D1    D(2,1,4,3)            119.9997         calculate D2E/DX2 analytically  !
 ! D2    D(2,1,5,3)           -119.9983         calculate D2E/DX2 analytically  !
 ! D3    D(2,1,5,4)            119.9999         calculate D2E/DX2 analytically  !
 ! D4    D(3,1,5,4)           -120.0018         calculate D2E/DX2 analytically  !
 --------------------------------------------------------------------------------
 Trust Radius=3.00D-01 FncErr=1.00D-07 GrdErr=1.00D-07 EigMax=2.50D+02 EigMin=1.00D-04
 Number of steps in this run=      2 maximum allowed number of steps=      2.
 GradGradGradGradGradGradGradGradGradGradGradGradGradGradGradGradGradGrad

                          Input orientation:                          
 ---------------------------------------------------------------------
 Center     Atomic      Atomic             Coordinates (Angstroms)
 Number     Number       Type             X           Y           Z
 ---------------------------------------------------------------------
      1         14           0        0.006462    1.044263   -0.000013
      2          1           0        1.482153    1.044241   -0.000022
      3          1           0       -0.485401    0.036535   -0.959288
      4          1           0       -0.485459    2.378915   -0.393034
      5          1           0       -0.485454    0.717386    1.352358
 ---------------------------------------------------------------------
                    Distance matrix (angstroms):
                    1          2          3          4          5
     1  Si   0.000000
     2  H    1.475690   0.000000
     3  H    1.475687   2.409757   0.000000
     4  H    1.475720   2.409836   2.409852   0.000000
     5  H    1.475716   2.409822   2.409827   2.409787   0.000000
 Stoichiometry    H4Si
 Framework group  C1[X(H4Si)]
 Deg. of freedom     9
 Full point group                 C1      NOp   1
 Largest Abelian subgroup         C1      NOp   1
 Largest concise Abelian subgroup C1      NOp   1
                         Standard orientation:                         
 ---------------------------------------------------------------------
 Center     Atomic      Atomic             Coordinates (Angstroms)
 Number     Number       Type             X           Y           Z
 ---------------------------------------------------------------------
      1         14           0       -0.000003   -0.000002   -0.000002
      2          1           0       -0.774561   -0.308288    1.217653
      3          1           0       -0.912993    0.079901   -1.156600
      4          1           0        0.995975   -1.063933   -0.232006
      5          1           0        0.691621    1.292345    0.170977
 ---------------------------------------------------------------------
 Rotational constants (GHZ):          86.3536118          86.3495780          86.3485070
 Standard basis: def2TZVP (5D, 7F)
 There are    66 symmetry adapted cartesian basis functions of A   symmetry.
 There are    61 symmetry adapted basis functions of A   symmetry.
    61 basis functions,   101 primitive gaussians,    66 cartesian basis functions
     9 alpha electrons        9 beta electrons
       nuclear repulsion energy        21.3987754530 Hartrees.
 NAtoms=    5 NActive=    5 NUniq=    5 SFac= 1.00D+00 NAtFMM=   60 NAOKFM=F Big=F
 Integral buffers will be    131072 words long.
 Raffenetti 2 integral format.
 Two-electron integral symmetry is turned on.
 One-electron integrals computed using PRISM.
   1 Symmetry operations used in ECPInt.
 ECPInt:  NShTT=     435 NPrTT=    1374 LenC2=     436 LenP2D=    1304.
 LDataN:  DoStor=T MaxTD1= 6 Len=  172
 NBasis=    61 RedAO= T EigKep=  9.85D-03  NBF=    61
 NBsUse=    61 1.00D-06 EigRej= -1.00D+00 NBFU=    61
 Initial guess from the checkpoint file:  "checkpoint.chk"
 B after Tr=    -0.000000   -0.000000   -0.000000
         Rot=    1.000000    0.000000   -0.000000   -0.000000 Ang=   0.00 deg.
 Keep R1 ints in memory in canonical form, NReq=5350006.
 Requested convergence on RMS density matrix=1.00D-08 within 128 cycles.
 Requested convergence on MAX density matrix=1.00D-06.
 Requested convergence on             energy=1.00D-06.
 No special actions if energy rises.
 SCF Done:  E(RM06) =  -291.876533671     A.U. after    1 cycles
            NFock=  1  Conv=0.17D-09     -V/T= 2.0025
 DoSCS=F DFT=T ScalE2(SS,OS)=  1.000000  1.000000
 Range of M.O.s used for correlation:     1    61
 NBasis=    61 NAE=     9 NBE=     9 NFC=     0 NFV=     0
 NROrb=     61 NOA=     9 NOB=     9 NVA=    52 NVB=    52
   1 Symmetry operations used in ECPInt.
 ECPInt:  NShTT=     435 NPrTT=    1374 LenC2=     436 LenP2D=    1304.
 LDataN:  DoStor=T MaxTD1= 7 Len=  274
 Symmetrizing basis deriv contribution to polar:
 IMax=3 JMax=2 DiffMx= 0.00D+00
 G2DrvN: will do     6 centers at a time, making    1 passes.
 Calling FoFCou, ICntrl=  3107 FMM=F I1Cent=   0 AccDes= 0.00D+00.
 End of G2Drv F.D. properties file   721 does not exist.
 End of G2Drv F.D. properties file   722 does not exist.
 End of G2Drv F.D. properties file   788 does not exist.
          IDoAtm=11111
          Differentiating once with respect to electric field.
                with respect to dipole field.
          Differentiating once with respect to nuclear coordinates.
 Keep R1 ints in memory in canonical form, NReq=5345560.
          There are    18 degrees of freedom in the 1st order CPHF.  IDoFFX=6 NUNeed=     3.
     15 vectors produced by pass  0 Test12= 2.60D-15 5.56D-09 XBig12= 1.95D+01 2.22D+00.
 AX will form    15 AO Fock derivatives at one time.
     15 vectors produced by pass  1 Test12= 2.60D-15 5.56D-09 XBig12= 4.83D-01 2.43D-01.
     15 vectors produced by pass  2 Test12= 2.60D-15 5.56D-09 XBig12= 3.68D-03 2.44D-02.
     15 vectors produced by pass  3 Test12= 2.60D-15 5.56D-09 XBig12= 1.08D-05 1.01D-03.
     15 vectors produced by pass  4 Test12= 2.60D-15 5.56D-09 XBig12= 2.68D-08 6.60D-05.
      8 vectors produced by pass  5 Test12= 2.60D-15 5.56D-09 XBig12= 4.00D-11 2.36D-06.
      4 vectors produced by pass  6 Test12= 2.60D-15 5.56D-09 XBig12= 3.15D-14 5.79D-08.
 InvSVY:  IOpt=1 It=  1 EMax= 1.22D-15
 Solved reduced A of dimension    87 with    15 vectors.
 Isotropic polarizability for W=    0.000000       27.97 Bohr**3.
 End of Minotr F.D. properties file   721 does not exist.
 End of Minotr F.D. properties file   722 does not exist.
 End of Minotr F.D. properties file   788 does not exist.

 **********************************************************************

            Population analysis using the SCF Density.

 **********************************************************************

 Orbital symmetries:
       Occupied  (A) (A) (A) (A) (A) (A) (A) (A) (A)
       Virtual   (A) (A) (A) (A) (A) (A) (A) (A) (A) (A) (A) (A)
                 (A) (A) (A) (A) (A) (A) (A) (A) (A) (A) (A) (A)
                 (A) (A) (A) (A) (A) (A) (A) (A) (A) (A) (A) (A)
                 (A) (A) (A) (A) (A) (A) (A) (A) (A) (A) (A) (A)
                 (A) (A) (A) (A)
 The electronic state is 1-A.
 Alpha  occ. eigenvalues --  -66.26165  -5.36371  -3.68286  -3.68286  -3.68286
 Alpha  occ. eigenvalues --   -0.55829  -0.36140  -0.36139  -0.36139
 Alpha virt. eigenvalues --    0.03958   0.03958   0.03959   0.06360   0.17024
 Alpha virt. eigenvalues --    0.17024   0.17024   0.19291   0.19292   0.28186
 Alpha virt. eigenvalues --    0.28776   0.28776   0.28776   0.42678   0.55676
 Alpha virt. eigenvalues --    0.55677   0.55677   0.90505   0.90505   0.90505
 Alpha virt. eigenvalues --    0.93366   0.93366   1.02020   1.02020   1.02021
 Alpha virt. eigenvalues --    1.07753   1.07754   1.07755   1.17318   1.30286
 Alpha virt. eigenvalues --    1.30287   1.30288   1.86855   1.86859   1.87773
 Alpha virt. eigenvalues --    1.87774   1.87779   2.06482   2.06485   2.06488
 Alpha virt. eigenvalues --    2.22951   2.38468   2.38469   2.38471   2.65693
 Alpha virt. eigenvalues --    2.86672   2.86674   2.86677   6.20494   6.20496
 Alpha virt. eigenvalues --    6.20498  10.73449
          Condensed to atoms (all electrons):
               1          2          3          4          5
     1  Si  12.200497   0.396739   0.396736   0.396736   0.396739
     2  H    0.396739   0.713106  -0.018906  -0.018902  -0.018901
     3  H    0.396736  -0.018906   0.713112  -0.018903  -0.018901
     4  H    0.396736  -0.018902  -0.018903   0.713118  -0.018905
     5  H    0.396739  -0.018901  -0.018901  -0.018905   0.713103
 Mulliken charges:
               1
     1  Si   0.212552
     2  H   -0.053135
     3  H   -0.053139
     4  H   -0.053144
     5  H   -0.053134
 Sum of Mulliken charges =  -0.00000
 Mulliken charges with hydrogens summed into heavy atoms:
               1
     1  Si  -0.000000
 APT charges:
               1
     1  Si   0.969621
     2  H   -0.242401
     3  H   -0.242461
     4  H   -0.242398
     5  H   -0.242362
 Sum of APT charges =   0.00000
 APT charges with hydrogens summed into heavy atoms:
               1
     1  Si   0.000000
 Electronic spatial extent (au):  <R**2>=             67.7203
 Charge=              0.0000 electrons
 Dipole moment (field-independent basis, Debye):
    X=             -0.0001    Y=             -0.0000    Z=             -0.0001  Tot=              0.0001
 Quadrupole moment (field-independent basis, Debye-Ang):
   XX=            -16.4155   YY=            -16.4155   ZZ=            -16.4154
   XY=             -0.0000   XZ=              0.0000   YZ=             -0.0000
 Traceless Quadrupole moment (field-independent basis, Debye-Ang):
   XX=             -0.0000   YY=             -0.0000   ZZ=              0.0000
   XY=             -0.0000   XZ=              0.0000   YZ=             -0.0000
 Octapole moment (field-independent basis, Debye-Ang**2):
  XXX=             -0.0439  YYY=             -0.4341  ZZZ=             -0.1176  XYY=             -1.0333
  XXY=              0.2605  XXZ=              0.1791  XZZ=              1.0767  YZZ=              0.1734
  YYZ=             -0.0616  XYZ=             -0.3629
 Hexadecapole moment (field-independent basis, Debye-Ang**3):
 XXXX=            -41.7712 YYYY=            -41.5792 ZZZZ=            -41.5875 XXXY=             -0.0570
 XXXZ=              0.0150 YYYX=              0.0332 YYYZ=              0.0644 ZZZX=              0.0006
 ZZZY=             -0.0696 XXYY=            -13.7942 XXZZ=            -13.7848 YYZZ=            -13.9754
 XXYZ=              0.0051 YYXZ=             -0.0155 ZZXY=              0.0237
 N-N= 2.139877545301D+01 E-N=-7.371638215391D+02  KE= 2.911416483728D+02
  Exact polarizability:      27.971      -0.001      27.967       0.001       0.001      27.975
 Approx polarizability:      35.706      -0.000      35.705      -0.000       0.000      35.705
   1 Symmetry operations used in ECPInt.
 ECPInt:  NShTT=     435 NPrTT=    1374 LenC2=     436 LenP2D=    1304.
 LDataN:  DoStor=T MaxTD1= 8 Len=  415
 Calling FoFJK, ICntrl=    100127 FMM=F ISym2X=0 I1Cent= 0 IOpClX= 0 NMat=1 NMatS=1 NMatT=0.
 Full mass-weighted force constant matrix:
 Low frequencies ---  -40.9842   -0.0034   -0.0025    0.0010   13.4579   47.8071
 Low frequencies ---  938.3047  939.0392  940.1497
 Diagonal vibrational polarizability:
        4.9375282       4.9335445       4.9303944
 Harmonic frequencies (cm**-1), IR intensities (KM/Mole), Raman scattering
 activities (A**4/AMU), depolarization ratios for plane and unpolarized
 incident light, reduced masses (AMU), force constants (mDyne/A),
 and normal coordinates:
                      1                      2                      3
                      A                      A                      A
 Frequencies --    938.3039               939.0384               940.1496
 Red. masses --      1.0957                 1.0956                 1.0956
 Frc consts  --      0.5684                 0.5692                 0.5706
 IR Inten    --    140.8253               140.8314               140.7975
  Atom  AN      X      Y      Z        X      Y      Z        X      Y      Z
     1  14    -0.05  -0.03   0.01     0.02  -0.04  -0.04    -0.03   0.03  -0.04
     2   1     0.25   0.24   0.25     0.03   0.49   0.12     0.45  -0.25   0.21
     3   1     0.37   0.36  -0.28    -0.30   0.40   0.25    -0.04  -0.29  -0.03
     4   1     0.42   0.42  -0.10     0.16   0.04   0.34     0.06  -0.02   0.47
     5   1     0.24  -0.13  -0.19    -0.34   0.11   0.40     0.36  -0.25   0.43
                      4                      5                      6
                      A                      A                      A
 Frequencies --    987.3065               988.2948              2285.9182
 Red. masses --      1.0079                 1.0079                 1.0083
 Frc consts  --      0.5788                 0.5800                 3.1044
 IR Inten    --      0.0526                 0.0753                 1.5293
  Atom  AN      X      Y      Z        X      Y      Z        X      Y      Z
     1  14     0.00  -0.00  -0.00     0.00   0.00  -0.00    -0.00  -0.00  -0.00
     2   1    -0.38  -0.15  -0.28     0.20  -0.46   0.01     0.24   0.09  -0.38
     3   1    -0.39   0.06   0.32     0.05   0.49  -0.01     0.35  -0.03   0.44
     4   1     0.36   0.30   0.19    -0.09  -0.18   0.47    -0.36   0.38   0.08
     5   1     0.40  -0.19  -0.21    -0.17   0.15  -0.43    -0.20  -0.38  -0.05
                      7                      8                      9
                      A                      A                      A
 Frequencies --   2287.9443              2288.2119              2288.3490
 Red. masses --      1.0511                 1.0507                 1.0512
 Frc consts  --      3.2417                 3.2413                 3.2431
 IR Inten    --    123.4439               122.5697               123.7817
  Atom  AN      X      Y      Z        X      Y      Z        X      Y      Z
     1  14    -0.03   0.02  -0.02     0.01  -0.03  -0.03     0.03   0.02  -0.02
     2   1    -0.10  -0.03   0.13    -0.24  -0.11   0.37    -0.39  -0.15   0.62
     3   1     0.47  -0.04   0.60     0.19  -0.03   0.22     0.01   0.01  -0.01
     4   1     0.41  -0.44  -0.11    -0.39   0.41   0.08    -0.07   0.09   0.01
     5   1     0.03   0.08   0.00     0.30   0.54   0.06    -0.30  -0.57  -0.08

 -------------------
 - Thermochemistry -
 -------------------
 Temperature   298.150 Kelvin.  Pressure   1.00000 Atm.
 Atom     1 has atomic number 14 and mass  27.97693
 Atom     2 has atomic number  1 and mass   1.00783
 Atom     3 has atomic number  1 and mass   1.00783
 Atom     4 has atomic number  1 and mass   1.00783
 Atom     5 has atomic number  1 and mass   1.00783
 Molecular mass:    32.00823 amu.
 Principal axes and moments of inertia in atomic units:
                           1         2         3
     Eigenvalues --    20.89943  20.90041  20.90066
           X            1.00000  -0.00000  -0.00000
           Y            0.00000   1.00000  -0.00000
           Z            0.00000   0.00000   1.00000
 This molecule is an asymmetric top.
 Rotational symmetry number  1.
 Rotational temperatures (Kelvin)      4.14432     4.14413     4.14407
 Rotational constants (GHZ):          86.35361    86.34958    86.34851
 Zero-point vibrational energy      83400.8 (Joules/Mol)
                                   19.93326 (Kcal/Mol)
 Vibrational temperatures:   1350.01  1351.07  1352.67  1420.51  1421.94
          (Kelvin)           3288.93  3291.84  3292.23  3292.42
 
 Zero-point correction=                           0.031766 (Hartree/Particle)
 Thermal correction to Energy=                    0.034816
 Thermal correction to Enthalpy=                  0.035760
 Thermal correction to Gibbs Free Energy=         0.010225
 Sum of electronic and zero-point Energies=           -291.844768
 Sum of electronic and thermal Energies=              -291.841718
 Sum of electronic and thermal Enthalpies=            -291.840774
 Sum of electronic and thermal Free Energies=         -291.866309
 
                     E (Thermal)             CV                S
                      KCal/Mol        Cal/Mol-Kelvin    Cal/Mol-Kelvin
 Total                   21.847              8.105             53.743
 Electronic               0.000              0.000              0.000
 Translational            0.889              2.981             36.322
 Rotational               0.889              2.981             16.864
 Vibrational             20.070              2.143              0.556
                       Q            Log10(Q)             Ln(Q)
 Total Bot       0.198051D-04         -4.703222        -10.829569
 Total V=0       0.809018D+10          9.907958         22.813916
 Vib (Bot)       0.257254D-14        -14.589639        -33.593884
 Vib (V=0)       0.105085D+01          0.021541          0.049601
 Electronic      0.100000D+01          0.000000          0.000000
 Translational   0.711781D+07          6.852346         15.778111
 Rotational      0.108161D+04          3.034070          6.986205

     ==================================================
      Anharmonic Data: Displacement Vectors Definition
     ==================================================

 Framework definition based on atomic masses: C1  
 ***** Axes restored to original set *****
 -------------------------------------------------------------------
 Center     Atomic                   Forces (Hartrees/Bohr)
 Number     Number              X              Y              Z
 -------------------------------------------------------------------
      1       14          -0.000003690    0.000008855    0.000008445
      2        1           0.000065346    0.000010024   -0.000008320
      3        1          -0.000025997   -0.000044601   -0.000042668
      4        1          -0.000021535    0.000041496   -0.000020534
      5        1          -0.000014124   -0.000015775    0.000063077
 -------------------------------------------------------------------
 Cartesian Forces:  Max     0.000065346 RMS     0.000032785
 FormGI is forming the generalized inverse of G from B-inverse, IUseBI=4.
 NDeriv=      9 NFrqRd=  0 NDerD0=      0 MskFDP=       0 MskDFD=       0 MskDF0=       0
 At 1st pt F.D. properties file   721 does not exist.
 At 1st pt F.D. properties file   722 does not exist.
 D2Numr ... symmetry will not be used.
 Standard basis: def2TZVP (5D, 7F)
    61 basis functions,   101 primitive gaussians,    66 cartesian basis functions
     9 alpha electrons        9 beta electrons
       nuclear repulsion energy        21.3986450680 Hartrees.
 NAtoms=    5 NActive=    5 NUniq=    5 SFac= 1.00D+00 NAtFMM=   60 NAOKFM=F Big=F
 Integral buffers will be    131072 words long.
 Raffenetti 2 integral format.
 Two-electron integral symmetry is turned off.
 One-electron integrals computed using PRISM.
   1 Symmetry operations used in ECPInt.
 ECPInt:  NShTT=     435 NPrTT=    1374 LenC2=     436 LenP2D=    1304.
 LDataN:  DoStor=T MaxTD1= 6 Len=  172
 NBasis=    61 RedAO= T EigKep=  9.85D-03  NBF=    61
 NBsUse=    61 1.00D-06 EigRej= -1.00D+00 NBFU=    61
 Initial guess from the checkpoint file:  "checkpoint.chk"
 B after Tr=    -0.000634   -0.000440    0.000158
         Rot=    1.000000    0.000000   -0.000000   -0.000000 Ang=   0.00 deg.
 Keep R1 ints in memory in canonical form, NReq=5349850.
 Requested convergence on RMS density matrix=1.00D-08 within 128 cycles.
 Requested convergence on MAX density matrix=1.00D-06.
 Requested convergence on             energy=1.00D-06.
 No special actions if energy rises.
 SCF Done:  E(RM06) =  -291.876527808     A.U. after    6 cycles
            NFock=  6  Conv=0.39D-08     -V/T= 2.0025
 DoSCS=F DFT=T ScalE2(SS,OS)=  1.000000  1.000000
 Range of M.O.s used for correlation:     1    61
 NBasis=    61 NAE=     9 NBE=     9 NFC=     0 NFV=     0
 NROrb=     61 NOA=     9 NOB=     9 NVA=    52 NVB=    52
   1 Symmetry operations used in ECPInt.
 ECPInt:  NShTT=     435 NPrTT=    1374 LenC2=     436 LenP2D=    1304.
 LDataN:  DoStor=T MaxTD1= 7 Len=  274
 Symmetrizing basis deriv contribution to polar:
 IMax=3 JMax=2 DiffMx= 0.00D+00
 G2DrvN: will do     6 centers at a time, making    1 passes.
 Calling FoFCou, ICntrl=  3107 FMM=F I1Cent=   0 AccDes= 0.00D+00.
 End of G2Drv F.D. properties file   721 does not exist.
 End of G2Drv F.D. properties file   722 does not exist.
 End of G2Drv F.D. properties file   788 does not exist.
          IDoAtm=11111
          Differentiating once with respect to electric field.
                with respect to dipole field.
          Differentiating once with respect to nuclear coordinates.
 Keep R1 ints in memory in canonical form, NReq=5345404.
          There are    18 degrees of freedom in the 1st order CPHF.  IDoFFX=6 NUNeed=     3.
     15 vectors produced by pass  0 Test12= 2.60D-15 5.56D-09 XBig12= 1.95D+01 2.01D+00.
 AX will form    15 AO Fock derivatives at one time.
     15 vectors produced by pass  1 Test12= 2.60D-15 5.56D-09 XBig12= 4.84D-01 2.46D-01.
     15 vectors produced by pass  2 Test12= 2.60D-15 5.56D-09 XBig12= 3.69D-03 2.45D-02.
     15 vectors produced by pass  3 Test12= 2.60D-15 5.56D-09 XBig12= 1.08D-05 9.73D-04.
     15 vectors produced by pass  4 Test12= 2.60D-15 5.56D-09 XBig12= 2.84D-08 6.49D-05.
      8 vectors produced by pass  5 Test12= 2.60D-15 5.56D-09 XBig12= 4.84D-11 2.28D-06.
      4 vectors produced by pass  6 Test12= 2.60D-15 5.56D-09 XBig12= 5.08D-14 5.96D-08.
 InvSVY:  IOpt=1 It=  1 EMax= 1.11D-15
[...]
 ,0.00205141,-0.00014444,-0.00046976,0.00095362,0.01075511,0.01534119,0
 .00143052,0.00476172,0.02423091,0.00096750,0.00111570,0.00063997,-0.00
 406892,-0.00398538,-0.01860083,0.01678712,-0.01734473,0.00655836,-0.00
 556990,0.00386566,-0.00091164,-0.00096132,-0.00057583,0.00142582,-0.00
 980801,-0.01437583,-0.01670187,-0.00009125,0.00182363,-0.00321379,0.00
 170128,-0.00139200,0.00477857,0.00101323,0.01509221,0.01456259,0.00594
 305,-0.00073974,-0.00002286,-0.00033116,0.00166691,0.00246088,0.001056
 22,0.00224594,0.00054304,-0.00702280,-0.00172850,-0.00488504,-0.010298
 25,-0.00685715,0.01135078,0.00377642,-0.00014451,-0.00256144,0.0013376
 2,-0.00215594,0.00024508,-0.00044789,-0.00114801,0.00035470,0.00563210
 ,-0.00714457,-0.00586207,0.01457463,-0.00035053,-0.00191924,-0.0004938
 1,-0.00177321,-0.00077148,-0.00290527,-0.00103730,0.00057451,-0.001444
 61,0.01030562,0.00797829,0.00939870,0.01249919,0.01662045,-0.00128601,
 -0.00060789,0.00233918,0.00132617,-0.00126559,-0.00681309,-0.00004974,
 -0.00089476,0.00190398,-0.00938912,-0.00973094,-0.01405053,-0.19313348
 ,0.00075310,-0.24368649,-0.02232703,-0.01949628,-0.19519664,0.18402074
 ,0.00070653,0.00132929,-0.19046158,0.00070812,-0.01933717,0.00010803,-
 0.00073116,0.02167125,0.00056368,0.00010089,-0.02017838,-0.00126328,-0
 .00006437,0.02236092,0.00344469,0.05975551,0.05699591,0.00234319,0.005
 35387,0.00506031,-0.00221017,0.05948755,0.09641177,0.11497272,0.000731
 28,-0.00088080,-0.00020841,-0.06152806,-0.09830494,0.05697160,0.115459
 40,0.08272500,0.00067600,-0.00020371,-0.00083119,-0.05861234,-0.118857
 47,-0.08388216,0.00423384,-0.07505166,0.02190010,0.00227317,-0.0068518
 6,0.00198841,-0.00190368,0.00227627,-0.00107635,-0.00300725,-0.0747129
 5,0.17671559,-0.05751867,-0.00096433,-0.00096069,0.00011693,-0.0015849
 8,0.00502743,-0.00092934,0.07730458,-0.18159757,0.02203704,-0.05819694
 ,-0.00714508,0.00027503,0.00009571,-0.00064269,-0.00200888,0.00471563,
 -0.00252895,-0.02248144,0.05964619,0.00884518,0.00143421,0.01383652,-0
 .05789828,0.00182447,0.00152103,-0.00634912,-0.00167402,-0.00096704,0.
 00204109,-0.00159608,-0.00004231,0.00217825,0.00001143,0.01376418,-0.0
 1010371,-0.03806580,0.00025768,-0.00049258,0.00005496,-0.00199634,-0.0
 0225345,0.00453112,0.00232266,0.00081523,-0.00626059,-0.01434819,0.012
 03451,-0.05724530,-0.03786707,0.13979510,-0.00101704,0.00006433,-0.000
 70866,-0.00143501,-0.00062247,0.00451730,-0.00033072,-0.00131512,0.001
 47155,0.06002806,0.03974032,-0.14507528,-0.07516267,0.17872738,-0.0682
 0024,0.06773798,0.25061912,0.11327843,0.07236307,-0.00543355,-0.001924
 54,-0.07213459,0.00206451,-0.00779715,-0.00259530,0.00477206,0.0080772
 7,0.00095788,-0.00256143,-0.00980275,0.00167765,0.00161257,0.00939499,
 -0.00178747,-0.08547601,-0.08118311,-0.00261327,-0.00257901,-0.0026799
 1,0.00251525,-0.08699047,-0.13276795,-0.16709009,0.00046041,0.00148306
 ,0.00053271,0.08504710,0.13069177,-0.08127111,-0.16427845,-0.11626321,
 0.00050772,0.00069967,0.00159300,0.08118841,0.16364494,0.11649049,0.00
 381275,-0.08978859,0.02580583,0.00213051,-0.00508276,0.00175697,0.0003
 3757,0.00105618,0.00038197,-0.00467872,-0.09358057,0.21030132,-0.07474
 863,0.00027222,-0.00135137,0.00010707,0.00170636,-0.00154276,0.0021097
 8,0.09179226,-0.20712038,0.02523939,-0.07010632,-0.01177377,-0.0001655
 4,0.00033122,-0.00122054,0.00051608,0.00107776,0.00133756,-0.02685104,
 0.07289119,0.01012891,0.00077431,0.00197078,-0.01043616,0.00025427,0.0
 0082521,-0.00171258,0.00154792,0.00042677,-0.00080699,-0.00160211,-0.0
 0019027,0.00126111,-0.00097439,-0.00022085,-0.00153597,-0.00618510,-0.
 00007113,-0.00041182,0.00030907,0.00130156,0.00213588,-0.00217594,0.00
 202291,-0.00028681,-0.00419385,-0.00303249,0.00009873,-0.01266413,-0.0
 1367292,0.02456129,-0.00009528,-0.00004816,0.00003529,0.00215853,0.001
 83468,-0.00315784,-0.00109374,-0.00035941,0.00152783,0.01169462,0.0122
 4582,-0.02296658,-0.19560464,-0.07681876,0.30217861,0.14809723,0.05682
 078,-0.15750617,0.19351959,0.00312867,-0.00427666,-0.19261356,-0.00014
 304,-0.02566856,-0.00065057,-0.00284680,0.02454412,0.00226776,-0.00061
 899,-0.02139679,0.00363915,0.00042720,0.02199791,0.00111506,-0.0334966
 3,-0.03249159,-0.00099500,0.00094109,0.00136001,-0.00118771,-0.0298871
 9,-0.05446555,-0.05996549,0.00046927,0.00073003,0.00078732,0.03155782,
 0.05650167,-0.03223388,-0.06651657,-0.04219954,0.00032011,0.00050508,0
 .00030929,0.02983436,0.06254341,0.03962507,-0.00090790,0.08648201,-0.0
 2551396,-0.00194764,0.00033993,0.00017871,0.00187505,-0.00227018,0.000
 18954,0.00113630,0.08424239,-0.20069502,0.06259869,-0.00074361,0.00184
 387,-0.00046305,0.00134902,-0.00299402,0.00088303,-0.08391512,0.199944
 58,-0.02667858,0.06757389,0.01175197,0.00017348,-0.00022017,0.00032311
 ,0.00107432,-0.00429216,0.00177142,0.02429817,-0.06283077,-0.01220940,
 0.00187789,0.02070471,-0.08581501,0.00203661,0.00170882,-0.00744563,-0
 .00080741,0.00013028,0.00188987,-0.00015581,-0.00093268,0.00113262,-0.
 00295129,0.02260660,-0.02134948,-0.05880341,-0.00000754,-0.00144945,-0
 .00013247,-0.00035130,0.00022787,0.00258506,-0.00063663,0.00190059,-0.
 00023079,-0.02161112,0.02067046,-0.09145253,-0.05725911,0.20935052,0.0
 0014392,-0.00006154,-0.00123352,0.00022291,0.00092692,0.00049377,0.000
 84754,-0.00018790,-0.00163711,0.09023815,0.05658161,-0.20697366,-0.333
 38379,0.00373761,0.05864371,-0.09369297,-0.07912517,0.26742853,0.32323
 990,0.00087666,0.00438349,-0.32046528,0.00106633,-0.03831421,0.0007121
 7,-0.00093073,0.03779848,0.00039975,0.00071607,-0.04111572,-0.00399415
 ,-0.00040023,0.03975238,0.00348832,-0.00142694,-0.00111012,-0.00004119
 ,0.00439470,0.00395710,-0.00461150,0.00333597,0.00080815,0.00101632,0.
 00025988,-0.00026331,0.00080194,-0.00345205,-0.00123883,0.00494011,0.0
 0401850,-0.00179486,0.00027489,0.00096020,-0.00017414,-0.00317601,-0.0
 0090377,0.00331074,0.00287675,0.01980203,-0.00558121,-0.00041925,-0.00
 489767,0.00125698,-0.00003924,-0.00009408,-0.00001636,-0.00386774,0.01
 333261,-0.03990938,0.01582950,-0.00042187,0.00076691,-0.00052525,-0.00
 015814,-0.00030413,0.00009779,-0.01370764,0.04061955,-0.00231335,0.012
 15166,-0.00083548,0.00018026,-0.00067899,-0.00073236,-0.00002701,-0.00
 088187,0.00040240,0.00409003,-0.01574280,0.00099317,0.00377882,-0.0229
 8936,0.09600082,-0.00231417,0.00036737,-0.00161968,0.00120362,-0.00004
 972,-0.00202263,0.00144949,0.00095504,-0.00192993,-0.00411775,-0.02147
 251,0.01877173,0.06156718,0.00021605,0.00001214,-0.00059252,0.00064242
 ,0.00099813,-0.00417273,-0.00110264,-0.00117295,0.00515200,0.02171667,
 -0.01860905,0.09066647,0.06223894,-0.22368246,-0.00084448,-0.00059316,
 0.00226984,0.00035604,-0.00003262,-0.00174413,0.00025056,0.00034076,0.
 00017227,-0.09042859,-0.06195392,0.22298448,-0.04718267,0.00609147,-0.
 08144018,-0.02171311,-0.00841287,-0.03224723,0.03874435,0.00092713,-0.
 00192848,-0.03672842,-0.00026868,0.00161459,0.00045019,0.00028569,0.00
 098204,-0.00836420,0.00058897,-0.00100651,0.00462251,-0.00026845,0.005
 48212,-0.00294651,0.01081956,0.01897368,-0.00141141,0.00099571,0.00271
 165,0.00743438,0.01312866,0.02324683,0.02938205,-0.00154629,-0.0004915
 8,-0.00026662,-0.01153182,-0.02214628,0.02252160,0.03078367,0.02222695
 ,-0.00165025,-0.00108730,-0.00229148,-0.02155540,-0.03004222,-0.017878
 15,0.00714174,-0.02254944,0.01690274,-0.00036435,-0.00091377,0.0015323
 2,-0.00147191,-0.00018460,0.00009653,-0.00364680,-0.02180561,0.0566675
 6,-0.02213141,0.00011317,-0.00125799,0.00030682,-0.00007848,-0.0000851
 0,0.00049485,0.02233117,-0.05432308,0.01624249,-0.02073500,-0.00596167
 ,-0.00008141,0.00105602,-0.00186368,0.00016600,0.00069077,-0.00172682,
 -0.01785912,0.01987096,0.01060171,0.00424298,0.00471129,-0.01223486,-0
 .00024016,-0.00009896,-0.00050227,-0.00160455,0.00013406,0.00058753,-0
 .00165868,-0.00056025,0.00153203,-0.00073960,0.00285417,-0.00008884,0.
 00071199,0.00022030,-0.00084706,-0.00036072,-0.00020497,-0.00052387,-0
 .00014899,0.00131664,-0.00100139,-0.00088275,-0.00418614,0.00246116,-0
 .00868681,-0.00222482,0.01698843,-0.00096237,-0.00015046,-0.00032045,-
 0.00029592,0.00023602,-0.00033050,-0.00067246,0.00145879,-0.00104954,0
 .01061757,0.00068048,-0.01528793,-0.05579377,-0.01433906,-0.04808188,-
 0.00116382,-0.00454763,-0.07360878,0.05103844,-0.00011495,0.00142904,-
 0.04797113,-0.00199057,0.00314417,0.00243774,0.00065638,-0.00029640,0.
 00607726,0.00243602,-0.00590051,-0.00449624,-0.00314161,0.00891329,0.0
 0432333,0.01652767,0.01385400,-0.00027248,0.00097901,0.00018856,-0.001
 26536,0.01342516,0.02516735,0.02261411,0.00043590,-0.00143449,0.000078
 21,-0.01577717,-0.02061289,0.01305486,0.02669726,0.02527208,0.00067198
 ,0.00049559,-0.00071822,-0.01299467,-0.02515426,-0.02256751,0.01002635
 ,-0.01192107,0.00471791,-0.00048617,-0.00085911,0.00053518,-0.00130645
 ,0.00165403,-0.00023490,-0.00685207,-0.00838315,0.01797054,-0.00720314
 ,-0.00055598,-0.00037216,-0.00027247,-0.00189093,-0.00147577,-0.002834
 31,0.01099000,-0.01600419,0.00585184,-0.01287499,0.00782174,0.00027039
 ,0.00022655,-0.00134752,-0.00122267,0.00207077,-0.00185311,-0.00524815
 ,0.01092744,-0.00419585,-0.00959438,0.00984738,-0.01883717,-0.00230867
 ,0.00121428,-0.00230476,-0.00147904,0.00026208,-0.00049727,-0.00138167
 ,-0.00015994,0.00034859,0.01476375,0.01128759,0.00179983,-0.01330107,-
 0.00042136,-0.00104111,0.00089984,0.00016142,-0.00164420,0.00079572,0.
 00013615,-0.00011842,-0.00034977,-0.01116381,0.00100390,-0.02382018,-0
 .01171066,0.04641546,0.00212483,-0.00001827,-0.00094703,0.00017477,0.0
 0039117,-0.00013324,0.00022996,-0.00061752,-0.00042526,0.02129061,0.01
 195528,-0.04490993,-0.08392839,-0.01078596,-0.04809956,0.01452616,0.01
 702762,-0.07816633,0.06190598,0.00904682,0.00302756,-0.05897070,0.0147
 9226,0.00288201,-0.00123580,-0.01171438,0.00192663,0.00382321,-0.00128
 443,0.00168025,-0.00239407,0.00230699,0.00078934,0.00528619,0.00430736
 ,0.00596072,-0.00088419,0.00112313,0.00032357,-0.00212623,0.00371591,0
 .01560428,0.01058182,0.00021257,-0.00111485,-0.00007561,-0.00450609,-0
 .01320228,0.00339894,0.00605190,0.00444904,0.00034266,0.00059328,-0.00
 037541,-0.00560186,-0.00961727,-0.00168872,0.00756779,-0.00825787,0.00
 332939,-0.00165705,-0.00342307,-0.00059188,-0.00114569,0.00038934,0.00
 008503,-0.00439266,-0.01394859,0.03651878,-0.00943880,0.00219191,-0.00
 213323,-0.00011418,-0.00007572,0.00000889,0.00053328,0.01166658,-0.033
 52159,0.00370038,-0.00661281,0.00490889,-0.00042008,-0.00121187,-0.000
 68562,-0.00020454,0.00053265,-0.00063070,-0.00285935,0.00932139,-0.002
 16657,0.00916839,0.00568964,-0.02684389,-0.00039404,-0.00077795,-0.001
 16082,-0.00113008,0.00018827,0.00177522,-0.00037238,0.00016583,-0.0002
 1641,-0.00727189,0.00622637,-0.00690545,-0.01693489,0.00026307,-0.0015
 6055,-0.00083277,-0.00084868,-0.00129604,0.00243881,-0.00037498,-0.000
 87285,-0.00202936,-0.00526579,0.01063488,-0.02544875,-0.01518233,0.067
 12819,-0.00055607,-0.00045260,-0.00140856,-0.00047790,-0.00142159,-0.0
 0175422,0.00003681,-0.00030168,-0.00142600,0.02644590,0.01735820,-0.06
 253941,-0.04647773,-0.00823150,-0.04413135,-0.00401125,0.00425701,-0.0
 4695104,0.04907589,0.00237974,0.00179641,-0.04574245,-0.00034408,-0.00
 101706,-0.00015531,0.00254523,0.00208330,0.00050508,-0.00017621,-0.003
 85849,-0.00065851,0.00043024,0.00464323,-0.00170845,0.01140571,0.00850
 373,-0.00199479,0.00019584,0.00171514,0.00513053,0.01240017,0.01666656
 ,0.01568904,-0.00306043,-0.00043504,-0.00123565,-0.00943765,-0.0134576
 2,0.01103337,0.01809153,0.01656913,-0.00204915,-0.00089973,0.00072316,
 -0.00834481,-0.01708896,-0.01734258,0.00342402,-0.01392140,0.01079627,
 -0.00006187,-0.00094357,-0.00043341,-0.00008874,-0.00030372,-0.0000189
 6,-0.00410284,-0.01125720,0.03312990,-0.01426785,-0.00047751,-0.000337
 96,-0.00007622,-0.00222334,-0.00203319,-0.00083069,0.01483105,-0.02937
 022,0.00992254,-0.01400360,-0.00359251,-0.00027141,0.00014608,-0.00169
 159,-0.00132831,0.00202863,0.00017248,-0.01044399,0.01194865,0.0059114
 7,-0.00431372,0.00836742,-0.01708520,-0.00127677,-0.00145341,-0.001128
 29,-0.00133855,0.00040163,-0.00062044,0.00082943,-0.00087300,0.0021211
 6,0.00609960,0.00743258,-0.00464800,-0.00552288,-0.00138703,-0.0002932
 5,0.00105783,0.00005944,-0.00074071,0.00072785,0.00033764,-0.00138853,
 -0.00011976,-0.00644264,0.00707048,-0.01744977,-0.00816874,0.03783294,
 0.00118266,0.00047873,0.00018370,-0.00054575,0.00060694,-0.00012219,0.
 00010009,0.00322611,-0.00079984,0.01671277,0.00385696,-0.03709461,-0.0
 5847599,-0.00238557,-0.06012184,-0.00459117,-0.00171714,-0.05125391,0.
 04374709,0.00409333,-0.00034529,-0.04062269,0.00888258,0.00233121,0.00
 078420,-0.00988418,-0.00082944,-0.00028045,0.00082083,-0.00274926,-0.0
 0014567,-0.00067848,0.00386387,0.00214376,0.00916701,0.01645698,-0.000
 14470,0.00121367,-0.00019396,-0.00235395,0.00715013,0.02074112,0.02449
 590,0.00058649,-0.00017584,0.00037673,-0.00994448,-0.02006713,0.014212
 20,0.02339797,0.01438805,-0.00025759,0.00018021,-0.00137456,-0.0161912
 2,-0.02228134,-0.00944392,0.00913950,-0.01460849,0.00574626,-0.0020675
 2,-0.00174314,0.00110957,-0.00038796,0.00215649,0.00000423,-0.00572159
 ,-0.01832877,0.03854803,-0.01207291,0.00433070,-0.00137115,0.00041191,
 0.00031067,-0.00070961,-0.00215161,0.01343521,-0.03681471,0.00734414,-
 0.01381049,0.00459610,-0.00071925,0.00032720,0.00119901,0.00021911,0.0
 0010459,-0.00106398,-0.00612828,0.01421812,-0.00379916,0.00344570,0.00
 373374,-0.01726674,-0.00091217,0.00153107,-0.00048948,0.00074286,0.000
 05138,0.00223239,-0.00096242,0.00025219,-0.00071572,-0.00231396,0.0046
 8165,-0.00149852,-0.01149003,0.00087367,0.00004522,-0.00093100,-0.0007
 4686,0.00021146,0.00085477,0.00075992,0.00034744,-0.00083942,-0.005568
 37,0.00089440,-0.01668469,-0.00869115,0.03501902,0.00146782,-0.0006131
 3,-0.00093906,-0.00029091,-0.00269588,-0.00250558,-0.00073178,-0.00040
 551,-0.00093197,0.01623956,0.01240567,-0.03064241,-0.06457783,0.009875
 26,-0.00807165,-0.01225134,0.05441069,0.03404963,-0.04925529,-0.003899
 18,0.02468659,0.04596172,-0.00330952,0.03301647,0.00205171,0.00325035,
 -0.03429954,0.02522380,0.00263052,0.03569962,-0.02441836,-0.00225149,-
 0.03705995,0.04078005,-0.00340816,-0.04784947,0.00042203,-0.00279188,-
 0.00269579,-0.04232489,-0.00363709,0.04074085,-0.09216088,0.00217691,0
 .00109997,0.00043404,0.00326179,-0.04463997,-0.04774744,-0.09350510,-0
 .10415028,0.00140192,0.00081337,0.00006815,0.04690483,0.09193686,0.102
 66001,0.06683886,0.00489167,-0.00210863,0.00107828,0.00354185,-0.00086
 203,0.00059333,-0.00271269,0.00047186,-0.06894745,0.00472739,-0.098100
 79,0.03487299,-0.00227042,0.00038077,-0.00024262,0.00123927,0.00037803
 ,0.00224189,-0.00341486,0.09546447,-0.00160568,0.03563842,0.03638099,0
 .00094659,-0.00002048,-0.00011934,0.00128512,-0.00423764,0.00059511,0.
 00096522,-0.03404252,-0.03734839,0.00621434,-0.00745961,0.03752282,0.0
 0179325,-0.00069079,0.00275238,0.00052948,0.00091108,-0.00103118,0.000
 43698,-0.00028138,-0.00159124,-0.00897405,-0.00765606,0.03241531,0.000
 82549,0.00074234,-0.00019767,-0.00057044,0.00169898,0.00242113,-0.0014
 8703,-0.00230596,0.00187753,0.00266222,0.00752070,-0.03651630,0.036380
 63,0.00082547,-0.00197980,-0.00261674,-0.00059312,0.00141151,0.0023553
 1,0.00402762,0.00082701,0.00153358,-0.00282974,0.00049162,-0.03765278,
 -0.00143024,-0.00075035,-0.15920534,0.00056540,0.07368282,0.09446511,0
 .13155774,0.13564638,-0.00848112,0.00021753,0.00268213,0.00821126,-0.0
 0011385,0.00431910,0.00077859,-0.00201426,-0.00595275,0.00533176,0.001
 83938,0.00580350,-0.00413978,-0.00148362,-0.00624496,0.08013694,-0.017
 95738,-0.09463250,-0.00018102,0.00039682,-0.00037058,-0.07892066,-0.01
 837402,0.06988595,-0.18702377,0.00261482,0.00141930,-0.00099180,0.0163
 7670,-0.07722050,-0.09404074,-0.18758973,-0.19345671,0.00097174,0.0004
 4496,-0.00052116,0.09376849,0.18386721,0.19612817,0.08860976,0.0171311
 9,-0.00357156,0.00010502,0.00190186,-0.00093430,-0.00159902,-0.0007336
 1,-0.00133381,-0.08782417,0.01768432,-0.14434189,0.05568022,-0.0009685
 0,-0.00009355,0.00075154,0.00032756,0.00313179,0.00159010,-0.01687022,
 0.13896440,-0.00250213,0.05613380,0.05362106,0.00063770,0.00021346,0.0
 0082989,-0.00171637,-0.00114419,-0.00333946,0.00378780,-0.05622356,-0.
 05103816,-0.00106013,0.00004325,0.00105680,0.00034586,-0.00017057,0.00
 011289,0.00056377,0.00011611,0.00063432,0.00070841,-0.00017317,-0.0002
 0699,-0.00055790,0.00023814,-0.00354585,-0.00099279,0.00015040,0.00030
 790,-0.00011550,0.00085630,0.00278345,0.00168745,-0.00142922,0.0023392
 5,0.00102049,0.00018438,-0.00188476,-0.00325401,-0.00194120,-0.0016141
 0,-0.00015179,0.00004661,0.00013273,0.00295095,0.00529256,0.00118916,0
 .00205187,-0.00179831,-0.00007333,-0.00159702,-0.00159966,0.00036554,-
 0.05302070,0.00972226,0.00719385,-0.09334370,-0.02513791,-0.04421082,-
 0.05596635,-0.00444016,0.03011562,0.05382870,-0.00338430,0.03909610,0.
 00283250,0.00511076,-0.03915246,0.02546717,0.00292838,0.03626199,-0.02
 995353,-0.00244780,-0.03844185,0.01184258,-0.00285249,-0.01556221,0.00
 042461,0.00039710,0.00030741,-0.01294708,-0.00157818,0.00448875,-0.027
 14970,0.00082712,-0.00013483,-0.00030315,0.00294607,-0.00420329,-0.014
 42147,-0.03016679,-0.02917905,0.00119846,-0.00018246,-0.00020819,0.013
 88830,0.02918105,0.02677626,0.08218761,0.01440417,-0.00401039,0.000994
 03,-0.00118050,0.00041409,0.00121147,-0.00179943,-0.00068771,-0.083411
 59,0.01293691,-0.12911635,0.04249858,-0.00224213,-0.00140539,0.0003304
 7,0.00020121,0.00031960,0.00096046,-0.01109501,0.12880817,-0.00380073,
 0.04412557,0.04814947,0.00110210,0.00038143,-0.00016969,0.00031642,-0.
 00261959,0.00072161,0.00197805,-0.04018528,-0.04907223,0.01495700,-0.0
 1683379,0.08280065,0.00071900,-0.00094306,0.00376486,-0.00053158,-0.00
 039558,0.00002241,-0.00098151,0.00019901,0.00040416,-0.01416291,-0.017
 69670,0.07833782,0.00695654,0.00074441,0.00159658,-0.00050790,-0.00069
 189,-0.00047022,0.00020774,-0.00032923,0.00139396,-0.00170212,0.017973
 42,-0.08085814,0.08609870,0.00825075,-0.01102143,-0.00246265,-0.000583
 66,0.00255774,0.00105008,0.00089139,0.00188938,0.00230595,-0.00360422,
 0.00037085,-0.08699208,-0.00495426,0.00620347,0.15081635,0.02599431,-0
 .18272528,-0.15472924,-0.02140679,-0.08358653,-0.17578211,-0.00852975,
 0.06198540,0.16944970,-0.00684100,0.10222702,0.00599779,0.00776387,-0.
 10099362,0.06251226,0.00607400,0.10956676,-0.05961757,-0.00529069,-0.1
 0984683,-0.00037576,0.00194314,-0.00029873,0.00055719,-0.00175007,-0.0
 0099886,-0.00057632,-0.00141614,-0.00033882,-0.00082202,0.00115952,-0.
 00007599,-0.00018873,0.00042896,0.00012683,-0.00229441,0.00161342,-0.0
 0161051,0.00186021,-0.00093011,0.00024357,0.00090973,0.00064933,0.0001
 9938,0.00291959,-0.00064129,-0.00130857,0.00172847,0.00050088,0.000338
 00,0.00019909,0.00007983,-0.00014515,-0.00564171,0.00124577,-0.0040819
 3,0.00389010,-0.00220317,-0.00069835,-0.00021842,-0.00005871,0.0002704
 8,0.00005375,0.00039251,0.00462708,-0.00084978,0.00057085,0.00012152,0
 .00140718,0.00051962,0.00044107,-0.00009421,-0.00006754,0.00019695,0.0
 0040462,-0.00272865,-0.00138453,0.02242204,-0.01876639,0.09435115,0.00
 404675,0.00032631,-0.00223383,0.00019581,-0.00025217,-0.00033038,0.000
 79456,0.00062359,-0.00086782,-0.02745916,-0.01898293,0.08491912,0.0123
 4091,0.00180953,-0.00045905,-0.00037616,-0.00056332,0.00001749,-0.0013
 8638,-0.00033193,-0.00011728,0.00170572,0.01806865,-0.08436028,0.09536
 118,0.01314851,-0.02449112,-0.00563522,-0.00029661,-0.00040456,0.00048
 207,0.00042896,0.00097062,0.00071110,-0.00099678,0.00062499,-0.0909191
 2,-0.01228408,0.02330007\\@
 The archive entry for this job was punched.


 IBM COMPATIBILITY IS LIKE PREGNANCY. YOU ARE OR
 OR YOU ARE NOT. -- ADAM OSBORNE
 Job cpu time:       0 days  0 hours 23 minutes 53.0 seconds.
 Elapsed time:       0 days  0 hours  6 minutes  1.9 seconds.
 File lengths (MBytes):  RWF=     45 Int=      0 D2E=      0 Chk=     76 Scr=      1
 Normal termination of Gaussian 16 at Tue Jun 23 15:30:10 2020.
