 Entering Gaussian System, Link 0=g16
 Input=trichlorofluoromethane.gjf
 Output=trichlorofluoromethane.log
 Initial command:
 /apps/gaussian/g16c01/g16/l1.exe "/jobfs/7277166.gadi-pbs/Gau-96782.inp" -scrdir="/jobfs/7277166.gadi-pbs/"
 Entering Link 1 = /apps/gaussian/g16c01/g16/l1.exe PID=     96783.
  
 Copyright (c) 1988-2019, Gaussian, Inc.  All Rights Reserved.
  
 This is part of the Gaussian(R) 16 program.  It is based on
 the Gaussian(R) 09 system (copyright 2009, Gaussian, Inc.),
 the Gaussian(R) 03 system (copyright 2003, Gaussian, Inc.),
 the Gaussian(R) 98 system (copyright 1998, Gaussian, Inc.),
 the Gaussian(R) 94 system (copyright 1995, Gaussian, Inc.),
 the Gaussian 92(TM) system (copyright 1992, Gaussian, Inc.),
 the Gaussian 90(TM) system (copyright 1990, Gaussian, Inc.),
 the Gaussian 88(TM) system (copyright 1988, Gaussian, Inc.),
 the Gaussian 86(TM) system (copyright 1986, Carnegie Mellon
 University), and the Gaussian 82(TM) system (copyright 1983,
 Carnegie Mellon University). Gaussian is a federally registered
 trademark of Gaussian, Inc.
  
 This software contains proprietary and confidential information,
 including trade secrets, belonging to Gaussian, Inc.
  
 This software is provided under written license and may be
 used, copied, transmitted, or stored only in accord with that
 written license.
  
 The following legend is applicable only to US Government
 contracts under FAR:
  
                    RESTRICTED RIGHTS LEGEND
  
 Use, reproduction and disclosure by the US Government is
 subject to restrictions as set forth in subparagraphs (a)
 and (c) of the Commercial Computer Software - Restricted
 Rights clause in FAR 52.227-19.
  
 Gaussian, Inc.
 340 Quinnipiac St., Bldg. 40, Wallingford CT 06492
  
  
 ---------------------------------------------------------------
 Warning -- This program may not be used in any manner that
 competes with the business of Gaussian, Inc. or will provide
 assistance to any competitor of Gaussian, Inc.  The licensee
 of this program is prohibited from giving any competitor of
 Gaussian, Inc. access to this program.  By using this program,
 the user acknowledges that Gaussian, Inc. is engaged in the
 business of creating and licensing software in the field of
 computational chemistry and represents and warrants to the
 licensee that it is not a competitor of Gaussian, Inc. and that
 it will not use this program in any manner prohibited above.
 ---------------------------------------------------------------
  

 Cite this work as:
 Gaussian 16, Revision C.01,
 M. J. Frisch, G. W. Trucks, H. B. Schlegel, G. E. Scuseria, 
 M. A. Robb, J. R. Cheeseman, G. Scalmani, V. Barone, 
 G. A. Petersson, H. Nakatsuji, X. Li, M. Caricato, A. V. Marenich, 
 J. Bloino, B. G. Janesko, R. Gomperts, B. Mennucci, H. P. Hratchian, 
 J. V. Ortiz, A. F. Izmaylov, J. L. Sonnenberg, D. Williams-Young, 
 F. Ding, F. Lipparini, F. Egidi, J. Goings, B. Peng, A. Petrone, 
 T. Henderson, D. Ranasinghe, V. G. Zakrzewski, J. Gao, N. Rega, 
 G. Zheng, W. Liang, M. Hada, M. Ehara, K. Toyota, R. Fukuda, 
 J. Hasegawa, M. Ishida, T. Nakajima, Y. Honda, O. Kitao, H. Nakai, 
 T. Vreven, K. Throssell, J. A. Montgomery, Jr., J. E. Peralta, 
 F. Ogliaro, M. J. Bearpark, J. J. Heyd, E. N. Brothers, K. N. Kudin, 
 V. N. Staroverov, T. A. Keith, R. Kobayashi, J. Normand, 
 K. Raghavachari, A. P. Rendell, J. C. Burant, S. S. Iyengar, 
 J. Tomasi, M. Cossi, J. M. Millam, M. Klene, C. Adamo, R. Cammi, 
 J. W. Ochterski, R. L. Martin, K. Morokuma, O. Farkas, 
 J. B. Foresman, and D. J. Fox, Gaussian, Inc., Wallingford CT, 2019.
 
 ******************************************
 Gaussian 16:  ES64L-G16RevC.01  3-Jul-2019
                18-Jun-2020 
 ******************************************
 -------------------------------------------------------
 # M06/Def2TZVP Freq=(anharmonic,ReadAnharm) Opt=CalcAll
 -------------------------------------------------------
 1/10=4,18=20,19=15,26=3,38=1,80=1/1,3;
 2/9=110,12=2,17=6,18=5,40=1/2;
 3/5=44,7=101,11=2,25=1,30=1,71=2,74=-54,140=1/1,2,3;
 4//1;
 5/5=2,38=5/2;
 8/6=4,10=90,11=11/1;
 11/6=1,8=1,9=11,15=111,16=1/1,2,10;
 10/6=1/2;
 6/7=2,8=2,9=2,10=2,18=1,28=1/1;
 7/10=1,25=1/1,2,3,16;
 1/10=4,18=20,19=15,26=3,80=1/3(3);
 2/9=110/2;
 7/8=1,9=1,25=1,44=-1,71=2,72=1/16;
 99//99;
 2/9=110/2;
 3/5=44,7=101,11=2,25=1,30=1,71=2,74=-54,140=1/1,2,3;
 4/5=5,16=3,69=1/1;
 5/5=2,38=5/2;
 8/6=4,10=90,11=11/1;
 11/6=1,8=1,9=11,15=111,16=1/1,2,10;
 10/6=1/2;
 7/10=1,25=1/1,2,3,16;
 1/10=4,18=20,19=15,26=3,80=1/3(-8);
 2/9=110/2;
 6/7=2,8=2,9=2,10=2,18=1,19=2,28=1/1;
 7/8=1,9=1,25=1,44=-1,71=1,72=1/16;
 99//99;
 ------------------------------------------------------------
 Anharmonic frequencies for trichlorofluoromethane using VPT2
 ------------------------------------------------------------
 Symbolic Z-matrix:
 Charge =  0 Multiplicity = 1
 C                    -0.35973   1.37679  -0.04814 
 Cl                    1.41506   1.39227  -0.06459 
 F                    -0.81285   2.25577  -0.98236 
 Cl                   -0.96181   1.87642   1.54494 
 Cl                   -0.96181  -0.24375  -0.44985 
 

 GradGradGradGradGradGradGradGradGradGradGradGradGradGradGradGradGradGrad
 Berny optimization.
 Initialization pass.
                           ----------------------------
                           !    Initial Parameters    !
                           ! (Angstroms and Degrees)  !
 --------------------------                            --------------------------
 ! Name  Definition              Value          Derivative Info.                !
 --------------------------------------------------------------------------------
 ! R1    R(1,2)                  1.7749         calculate D2E/DX2 analytically  !
 ! R2    R(1,3)                  1.3604         calculate D2E/DX2 analytically  !
 ! R3    R(1,4)                  1.7748         calculate D2E/DX2 analytically  !
 ! R4    R(1,5)                  1.7748         calculate D2E/DX2 analytically  !
 ! A1    A(2,1,3)              108.7265         calculate D2E/DX2 analytically  !
 ! A2    A(2,1,4)              110.1859         calculate D2E/DX2 analytically  !
 ! A3    A(2,1,5)              110.1861         calculate D2E/DX2 analytically  !
 ! A4    A(3,1,4)              108.7549         calculate D2E/DX2 analytically  !
 ! A5    A(3,1,5)              108.7553         calculate D2E/DX2 analytically  !
 ! A6    A(4,1,5)              110.1889         calculate D2E/DX2 analytically  !
 ! D1    D(2,1,4,3)            119.0832         calculate D2E/DX2 analytically  !
 ! D2    D(2,1,5,3)           -119.0835         calculate D2E/DX2 analytically  !
 ! D3    D(2,1,5,4)            121.7967         calculate D2E/DX2 analytically  !
 ! D4    D(3,1,5,4)           -119.1198         calculate D2E/DX2 analytically  !
 --------------------------------------------------------------------------------
 Trust Radius=3.00D-01 FncErr=1.00D-07 GrdErr=1.00D-06 EigMax=2.50D+02 EigMin=1.00D-04
 Number of steps in this run=     24 maximum allowed number of steps=    100.
 GradGradGradGradGradGradGradGradGradGradGradGradGradGradGradGradGradGrad

                          Input orientation:                          
 ---------------------------------------------------------------------
 Center     Atomic      Atomic             Coordinates (Angstroms)
 Number     Number       Type             X           Y           Z
 ---------------------------------------------------------------------
      1          6           0       -0.359730    1.376790   -0.048140
      2         17           0        1.415060    1.392270   -0.064590
      3          9           0       -0.812850    2.255770   -0.982360
      4         17           0       -0.961810    1.876420    1.544940
      5         17           0       -0.961810   -0.243750   -0.449850
 ---------------------------------------------------------------------
                    Distance matrix (angstroms):
                    1          2          3          4          5
     1  C    0.000000
     2  Cl   1.774934   0.000000
     3  F    1.360401   2.559593   0.000000
     4  Cl   1.774834   2.911099   2.559949   0.000000
     5  Cl   1.774830   2.911099   2.559952   2.911066   0.000000
 Stoichiometry    CCl3F
 Framework group  C1[X(CCl3F)]
 Deg. of freedom     9
 Full point group                 C1      NOp   1
 Largest Abelian subgroup         C1      NOp   1
 Largest concise Abelian subgroup C1      NOp   1
                         Standard orientation:                         
 ---------------------------------------------------------------------
 Center     Atomic      Atomic             Coordinates (Angstroms)
 Number     Number       Type             X           Y           Z
 ---------------------------------------------------------------------
      1          6           0       -0.000073    0.000002    0.255241
      2         17           0        1.680637   -0.005088   -0.315351
      3          9           0        0.000531   -0.000006    1.615642
      4         17           0       -0.844854   -1.452981   -0.315038
      5         17           0       -0.836039    1.458072   -0.315036
 ---------------------------------------------------------------------
 Rotational constants (GHZ):           2.4185806           2.4185292           1.7053953
 Standard basis: def2TZVP (5D, 7F)
 There are   198 symmetry adapted cartesian basis functions of A   symmetry.
 There are   173 symmetry adapted basis functions of A   symmetry.
   173 basis functions,   309 primitive gaussians,   198 cartesian basis functions
    33 alpha electrons       33 beta electrons
       nuclear repulsion energy       364.7285246257 Hartrees.
 NAtoms=    5 NActive=    5 NUniq=    5 SFac= 1.00D+00 NAtFMM=   60 NAOKFM=F Big=F
 Integral buffers will be    131072 words long.
 Raffenetti 2 integral format.
 Two-electron integral symmetry is turned on.
 One-electron integrals computed using PRISM.
   1 Symmetry operations used in ECPInt.
 ECPInt:  NShTT=    1891 NPrTT=    7533 LenC2=    1819 LenP2D=    5503.
 LDataN:  DoStor=T MaxTD1= 6 Len=  172
 NBasis=   173 RedAO= T EigKep=  2.39D-03  NBF=   173
 NBsUse=   173 1.00D-06 EigRej= -1.00D+00 NBFU=   173
 ExpMin= 9.52D-02 ExpMax= 6.95D+04 ExpMxC= 2.37D+03 IAcc=3 IRadAn=         5 AccDes= 0.00D+00
 Harris functional with IExCor= 1009 and IRadAn=       5 diagonalized for initial guess.
 HarFok:  IExCor= 1009 AccDes= 0.00D+00 IRadAn=         5 IDoV= 1 UseB2=F ITyADJ=14
 ICtDFT=  3500011 ScaDFX=  1.000000  1.000000  1.000000  1.000000
 FoFCou: FMM=F IPFlag=           0 FMFlag=      100000 FMFlg1=           0
         NFxFlg=           0 DoJE=T BraDBF=F KetDBF=T FulRan=T
         wScrn=  0.000000 ICntrl=       500 IOpCl=  0 I1Cent=   200000004 NGrid=           0
         NMat0=    1 NMatS0=      1 NMatT0=    0 NMatD0=    1 NMtDS0=    0 NMtDT0=    0
 Petite list used in FoFCou.
 Requested convergence on RMS density matrix=1.00D-08 within 128 cycles.
 Requested convergence on MAX density matrix=1.00D-06.
 Requested convergence on             energy=1.00D-06.
 No special actions if energy rises.
 Integral accuracy reduced to 1.0D-05 until final iterations.
 Initial convergence to 1.0D-05 achieved.  Increase integral accuracy.
 SCF Done:  E(RM06) =  -1518.50937906     A.U. after   14 cycles
            NFock= 14  Conv=0.31D-08     -V/T= 2.0019
 DoSCS=F DFT=T ScalE2(SS,OS)=  1.000000  1.000000
 Range of M.O.s used for correlation:     1   173
 NBasis=   173 NAE=    33 NBE=    33 NFC=     0 NFV=     0
 NROrb=    173 NOA=    33 NOB=    33 NVA=   140 NVB=   140
   1 Symmetry operations used in ECPInt.
 ECPInt:  NShTT=    1891 NPrTT=    7533 LenC2=    1819 LenP2D=    5503.
 LDataN:  DoStor=T MaxTD1= 7 Len=  274
 Symmetrizing basis deriv contribution to polar:
 IMax=3 JMax=2 DiffMx= 0.00D+00
 G2DrvN: will do     6 centers at a time, making    1 passes.
 Calling FoFCou, ICntrl=  3107 FMM=F I1Cent=   0 AccDes= 0.00D+00.
 End of G2Drv F.D. properties file   721 does not exist.
 End of G2Drv F.D. properties file   722 does not exist.
 End of G2Drv F.D. properties file   788 does not exist.
          IDoAtm=11111
          Differentiating once with respect to electric field.
                with respect to dipole field.
          Differentiating once with respect to nuclear coordinates.
 CalDSu exits because no D1Ps are significant.
          There are    18 degrees of freedom in the 1st order CPHF.  IDoFFX=6 NUNeed=     3.
     15 vectors produced by pass  0 Test12= 2.57D-14 5.56D-09 XBig12= 4.15D+01 2.26D+00.
 AX will form    15 AO Fock derivatives at one time.
     15 vectors produced by pass  1 Test12= 2.57D-14 5.56D-09 XBig12= 6.05D+00 9.24D-01.
     15 vectors produced by pass  2 Test12= 2.57D-14 5.56D-09 XBig12= 1.87D-01 9.15D-02.
     15 vectors produced by pass  3 Test12= 2.57D-14 5.56D-09 XBig12= 6.97D-03 1.94D-02.
     15 vectors produced by pass  4 Test12= 2.57D-14 5.56D-09 XBig12= 8.10D-05 2.45D-03.
     15 vectors produced by pass  5 Test12= 2.57D-14 5.56D-09 XBig12= 4.38D-07 1.38D-04.
     15 vectors produced by pass  6 Test12= 2.57D-14 5.56D-09 XBig12= 3.49D-09 9.57D-06.
      9 vectors produced by pass  7 Test12= 2.57D-14 5.56D-09 XBig12= 2.05D-11 7.60D-07.
      3 vectors produced by pass  8 Test12= 2.57D-14 5.56D-09 XBig12= 6.26D-14 5.22D-08.
 InvSVY:  IOpt=1 It=  1 EMax= 7.77D-16
 Solved reduced A of dimension   117 with    15 vectors.
 Isotropic polarizability for W=    0.000000       49.69 Bohr**3.
 End of Minotr F.D. properties file   721 does not exist.
 End of Minotr F.D. properties file   722 does not exist.
 End of Minotr F.D. properties file   788 does not exist.

 **********************************************************************

            Population analysis using the SCF Density.

 **********************************************************************

 Orbital symmetries:
       Occupied  (A) (A) (A) (A) (A) (A) (A) (A) (A) (A) (A) (A)
                 (A) (A) (A) (A) (A) (A) (A) (A) (A) (A) (A) (A)
                 (A) (A) (A) (A) (A) (A) (A) (A) (A)
       Virtual   (A) (A) (A) (A) (A) (A) (A) (A) (A) (A) (A) (A)
                 (A) (A) (A) (A) (A) (A) (A) (A) (A) (A) (A) (A)
                 (A) (A) (A) (A) (A) (A) (A) (A) (A) (A) (A) (A)
                 (A) (A) (A) (A) (A) (A) (A) (A) (A) (A) (A) (A)
                 (A) (A) (A) (A) (A) (A) (A) (A) (A) (A) (A) (A)
                 (A) (A) (A) (A) (A) (A) (A) (A) (A) (A) (A) (A)
                 (A) (A) (A) (A) (A) (A) (A) (A) (A) (A) (A) (A)
                 (A) (A) (A) (A) (A) (A) (A) (A) (A) (A) (A) (A)
                 (A) (A) (A) (A) (A) (A) (A) (A) (A) (A) (A) (A)
                 (A) (A) (A) (A) (A) (A) (A) (A) (A) (A) (A) (A)
                 (A) (A) (A) (A) (A) (A) (A) (A) (A) (A) (A) (A)
                 (A) (A) (A) (A) (A) (A) (A) (A)
 The electronic state is 1-A.
 Alpha  occ. eigenvalues -- -101.75031-101.75031-101.75027 -24.83268 -10.51122
 Alpha  occ. eigenvalues --   -9.62134  -9.62134  -9.62130  -7.33299  -7.33299
 Alpha  occ. eigenvalues --   -7.33296  -7.32268  -7.32268  -7.32264  -7.32258
 Alpha  occ. eigenvalues --   -7.32258  -7.32254  -1.31277  -0.96420  -0.88105
 Alpha  occ. eigenvalues --   -0.88103  -0.68697  -0.57490  -0.55818  -0.55818
 Alpha  occ. eigenvalues --   -0.44864  -0.44864  -0.38833  -0.37684  -0.37683
 Alpha  occ. eigenvalues --   -0.34771  -0.34770  -0.33383
 Alpha virt. eigenvalues --   -0.05049   0.00322   0.00326   0.07014   0.12813
 Alpha virt. eigenvalues --    0.19085   0.19086   0.24811   0.26956   0.26958
 Alpha virt. eigenvalues --    0.31592   0.31592   0.33384   0.33384   0.33816
 Alpha virt. eigenvalues --    0.34696   0.35292   0.35382   0.35383   0.37674
 Alpha virt. eigenvalues --    0.41213   0.41214   0.43373   0.45580   0.46786
 Alpha virt. eigenvalues --    0.46787   0.56825   0.56826   0.60819   0.62609
 Alpha virt. eigenvalues --    0.62610   0.65725   0.76007   0.76841   0.76845
 Alpha virt. eigenvalues --    0.92494   0.95116   0.95133   0.98426   0.98428
 Alpha virt. eigenvalues --    1.02448   1.05150   1.05156   1.05515   1.42274
 Alpha virt. eigenvalues --    1.63635   1.63637   1.66806   1.68031   1.68034
 Alpha virt. eigenvalues --    1.71768   1.73976   1.73979   1.74716   1.75611
 Alpha virt. eigenvalues --    1.75613   1.77021   1.77518   1.77518   1.83392
 Alpha virt. eigenvalues --    1.88149   1.88150   1.88626   1.91471   1.91481
 Alpha virt. eigenvalues --    1.95639   2.02581   2.02582   2.05923   2.06242
 Alpha virt. eigenvalues --    2.06244   2.06540   2.06541   2.06663   2.12427
 Alpha virt. eigenvalues --    2.12445   2.15116   2.15119   2.17645   2.17651
 Alpha virt. eigenvalues --    2.17854   2.18622   2.20550   2.20553   2.22431
 Alpha virt. eigenvalues --    2.22435   2.24168   2.24480   2.28195   2.45051
 Alpha virt. eigenvalues --    2.52468   2.52490   2.57080   2.77138   2.77143
 Alpha virt. eigenvalues --    2.98456   2.99427   2.99435   3.14316   3.14318
 Alpha virt. eigenvalues --    3.27657   3.42583   3.43484   3.43490   3.49373
 Alpha virt. eigenvalues --    3.49374   3.53677   3.78113   3.78128   3.90993
 Alpha virt. eigenvalues --    3.91592   3.91594   4.09593   5.11699   6.85427
 Alpha virt. eigenvalues --    6.85519   6.94797   6.94799   7.18845   7.18848
 Alpha virt. eigenvalues --    7.24842   8.38854   8.38855   8.81957   8.81960
 Alpha virt. eigenvalues --    9.00481  10.78522  10.79081  10.79082  10.80153
 Alpha virt. eigenvalues --   10.85892  10.85897  11.29074  11.29079  11.35294
 Alpha virt. eigenvalues --   21.75445  25.12977  25.13027  25.22746  57.01724
          Condensed to atoms (all electrons):
               1          2          3          4          5
     1  C    4.313386   0.359198   0.286964   0.359267   0.359258
     2  Cl   0.359198  16.898625  -0.054644  -0.076229  -0.076229
     3  F    0.286964  -0.054644   9.047008  -0.054563  -0.054561
     4  Cl   0.359267  -0.076229  -0.054563  16.898255  -0.076227
     5  Cl   0.359258  -0.076229  -0.054561  -0.076227  16.898257
 Mulliken charges:
               1
     1  C    0.321927
     2  Cl  -0.050721
     3  F   -0.170205
     4  Cl  -0.050503
     5  Cl  -0.050498
 Sum of Mulliken charges =  -0.00000
 Mulliken charges with hydrogens summed into heavy atoms:
               1
     1  C    0.321927
     2  Cl  -0.050721
     3  F   -0.170205
     4  Cl  -0.050503
     5  Cl  -0.050498
 APT charges:
               1
     1  C    1.635596
     2  Cl  -0.345348
     3  F   -0.599223
     4  Cl  -0.345497
     5  Cl  -0.345528
 Sum of APT charges =  -0.00000
 APT charges with hydrogens summed into heavy atoms:
               1
     1  C    1.635596
     2  Cl  -0.345348
     3  F   -0.599223
     4  Cl  -0.345497
     5  Cl  -0.345528
 Electronic spatial extent (au):  <R**2>=            722.6582
 Charge=             -0.0000 electrons
 Dipole moment (field-independent basis, Debye):
    X=             -0.0016    Y=             -0.0000    Z=             -0.5056  Tot=              0.5056
 Quadrupole moment (field-independent basis, Debye-Ang):
   XX=            -46.1819   YY=            -46.1791   ZZ=            -48.6175
   XY=             -0.0000   XZ=             -0.0001   YZ=             -0.0000
 Traceless Quadrupole moment (field-independent basis, Debye-Ang):
   XX=              0.8110   YY=              0.8137   ZZ=             -1.6247
   XY=             -0.0000   XZ=             -0.0001   YZ=             -0.0000
 Octapole moment (field-independent basis, Debye-Ang**2):
  XXX=              4.6856  YYY=              0.0426  ZZZ=              6.2175  XYY=             -4.6919
  XXY=             -0.0428  XXZ=              0.1418  XZZ=             -0.0008  YZZ=              0.0000
  YYZ=              0.1414  XYZ=             -0.0000
 Hexadecapole moment (field-independent basis, Debye-Ang**3):
 XXXX=           -341.1636 YYYY=           -341.1293 ZZZZ=           -149.2690 XXXY=             -0.0000
 XXXZ=             -4.6934 YYYX=             -0.0001 YYYZ=             -0.0428 ZZZX=              0.0067
 ZZZY=             -0.0002 XXYY=           -113.7136 XXZZ=            -83.3953 YYZZ=            -83.3918
 XXYZ=              0.0426 YYXZ=              4.7002 ZZXY=              0.0000
 N-N= 3.647285246257D+02 E-N=-4.339114073305D+03  KE= 1.515641289331D+03
  Exact polarizability:      54.984       0.000      54.983      -0.030      -0.000      39.112
 Approx polarizability:      82.580       0.000      82.581       0.001       0.000      62.985
   1 Symmetry operations used in ECPInt.
 ECPInt:  NShTT=    1891 NPrTT=    7533 LenC2=    1819 LenP2D=    5503.
 LDataN:  DoStor=T MaxTD1= 8 Len=  415
 Calling FoFJK, ICntrl=    100127 FMM=F ISym2X=0 I1Cent= 0 IOpClX= 0 NMat=1 NMatS=1 NMatT=0.
 ***** Axes restored to original set *****
 -------------------------------------------------------------------
 Center     Atomic                   Forces (Hartrees/Bohr)
 Number     Number              X              Y              Z
 -------------------------------------------------------------------
      1        6          -0.006390731    0.012566079   -0.013341124
      2       17          -0.006332564    0.000883952   -0.000952535
      3        9           0.009779516   -0.019032098    0.020228057
      4       17           0.001474448   -0.000710481   -0.006262687
      5       17           0.001469331    0.006292549    0.000328288
 -------------------------------------------------------------------
 Cartesian Forces:  Max     0.020228057 RMS     0.009554477
 FormGI is forming the generalized inverse of G from B-inverse, IUseBI=4.

 GradGradGradGradGradGradGradGradGradGradGradGradGradGradGradGradGradGrad
 Berny optimization.
 Internal  Forces:  Max     0.029445426 RMS     0.008451420
 Search for a local minimum.
 Step number   1 out of a maximum of   24
 All quantities printed in internal units (Hartrees-Bohrs-Radians)
 Mixed Optimization -- RFO/linear search
 Second derivative matrix not updated -- analytic derivatives used.
 The second derivative matrix:
                          R1        R2        R3        R4        A1
           R1           0.19498
           R2           0.03837   0.31501
           R3           0.02897   0.03828   0.19467
           R4           0.02897   0.03828   0.02908   0.19460
           A1           0.00783   0.00724  -0.00408  -0.00923   0.03649
           A2           0.01057  -0.00245   0.01183  -0.02056  -0.01205
           A3           0.01983  -0.01753  -0.01996   0.01321  -0.02103
           A4          -0.00241   0.01131   0.01355  -0.01955  -0.01222
           A5          -0.01580   0.02225  -0.01777   0.01704  -0.02427
           A6          -0.02030  -0.01971   0.01620   0.01876   0.03308
           D1           0.01435   0.01426   0.01030  -0.03536   0.02990
           D2          -0.01168  -0.01199   0.02765  -0.00697  -0.01723
           D3           0.01295  -0.02766   0.01235  -0.00466  -0.00715
           D4           0.02463  -0.01567  -0.01530   0.00231   0.01008
                          A2        A3        A4        A5        A6
           A2           0.07440
           A3          -0.04356   0.13869
           A4           0.00308   0.03181   0.07250
           A5           0.03331  -0.06002  -0.04425   0.14218
           A6          -0.05450  -0.04721  -0.05046  -0.04494   0.16229
           D1           0.03131  -0.03209   0.03112  -0.03682  -0.02274
           D2           0.02022  -0.02002   0.02301  -0.02148   0.01505
           D3           0.02849   0.00582  -0.00846  -0.02758   0.00769
           D4           0.00827   0.02584  -0.03147  -0.00610  -0.00736
                          D1        D2        D3        D4
           D1           0.07400
           D2           0.00502   0.04597
           D3           0.00303   0.02207   0.04464
           D4          -0.00199  -0.02390   0.02257   0.04647
 ITU=  0
     Eigenvalues ---    0.07361   0.08267   0.10318   0.17167   0.20206
     Eigenvalues ---    0.23142   0.25331   0.25589   0.36306
 RFO step:  Lambda=-2.82582590D-03 EMin= 7.36132283D-02
 Linear search not attempted -- first point.
 Iteration  1 RMS(Cart)=  0.02199007 RMS(Int)=  0.00000569
 Iteration  2 RMS(Cart)=  0.00000459 RMS(Int)=  0.00000133
 Iteration  3 RMS(Cart)=  0.00000000 RMS(Int)=  0.00000133
 Variable       Old X    -DE/DX   Delta X   Delta X   Delta X     New X
                                 (Linear)    (Quad)   (Total)
    R1        3.35414  -0.00632   0.00000  -0.01115  -0.01115   3.34299
    R2        2.57079  -0.02945   0.00000  -0.08945  -0.08945   2.48134
    R3        3.35395  -0.00632   0.00000  -0.01104  -0.01104   3.34291
    R4        3.35394  -0.00632   0.00000  -0.01100  -0.01100   3.34295
    A1        1.89764  -0.00049   0.00000   0.00146   0.00146   1.89909
    A2        1.92311   0.00019   0.00000  -0.00108  -0.00108   1.92202
    A3        1.92311   0.00124   0.00000  -0.00116  -0.00116   1.92195
    A4        1.89813  -0.00078   0.00000   0.00118   0.00119   1.89932
    A5        1.89814  -0.00156   0.00000   0.00118   0.00118   1.89932
    A6        1.92316   0.00133   0.00000  -0.00148  -0.00148   1.92168
    D1        2.07839  -0.00096   0.00000   0.00186   0.00186   2.08025
    D2       -2.07840   0.00081   0.00000  -0.00181  -0.00181  -2.08021
    D3        2.12575   0.00193   0.00000  -0.00310  -0.00310   2.12266
    D4       -2.07903   0.00112   0.00000  -0.00129  -0.00129  -2.08032
         Item               Value     Threshold  Converged?
 Maximum Force            0.029445     0.000450     NO 
 RMS     Force            0.008451     0.000300     NO 
 Maximum Displacement     0.048988     0.001800     NO 
 RMS     Displacement     0.021992     0.001200     NO 
 Predicted change in Energy=-1.424775D-03
 GradGradGradGradGradGradGradGradGradGradGradGradGradGradGradGradGradGrad

                          Input orientation:                          
 ---------------------------------------------------------------------
 Center     Atomic      Atomic             Coordinates (Angstroms)
 Number     Number       Type             X           Y           Z
 ---------------------------------------------------------------------
      1          6           0       -0.362797    1.383053   -0.054768
      2         17           0        1.406120    1.396874   -0.069528
      3          9           0       -0.800349    2.231395   -0.956437
      4         17           0       -0.962077    1.879149    1.533967
      5         17           0       -0.962037   -0.232971   -0.453235
 ---------------------------------------------------------------------
                    Distance matrix (angstroms):
                    1          2          3          4          5
     1  C    0.000000
     2  Cl   1.769032   0.000000
     3  F    1.313066   2.520226   0.000000
     4  Cl   1.768991   2.900370   2.520386   0.000000
     5  Cl   1.769011   2.900310   2.520408   2.900004   0.000000
 Stoichiometry    CCl3F
 Framework group  C1[X(CCl3F)]
 Deg. of freedom     9
 Full point group                 C1      NOp   1
 Largest Abelian subgroup         C1      NOp   1
 Largest concise Abelian subgroup C1      NOp   1
                         Standard orientation:                         
 ---------------------------------------------------------------------
 Center     Atomic      Atomic             Coordinates (Angstroms)
 Number     Number       Type             X           Y           Z
 ---------------------------------------------------------------------
      1          6           0        0.000080   -0.000034    0.261893
      2         17           0        1.669533   -0.128806   -0.308914
      3          9           0        0.000404   -0.000084    1.574959
      4         17           0       -0.946471   -1.381271   -0.308680
      5         17           0       -0.723305    1.510133   -0.308640
 ---------------------------------------------------------------------
 Rotational constants (GHZ):           2.4653917           2.4648389           1.7181916
 Standard basis: def2TZVP (5D, 7F)
 There are   198 symmetry adapted cartesian basis functions of A   symmetry.
 There are   173 symmetry adapted basis functions of A   symmetry.
   173 basis functions,   309 primitive gaussians,   198 cartesian basis functions
    33 alpha electrons       33 beta electrons
       nuclear repulsion energy       367.8646449910 Hartrees.
 NAtoms=    5 NActive=    5 NUniq=    5 SFac= 1.00D+00 NAtFMM=   60 NAOKFM=F Big=F
 Integral buffers will be    131072 words long.
 Raffenetti 2 integral format.
 Two-electron integral symmetry is turned on.
 One-electron integrals computed using PRISM.
   1 Symmetry operations used in ECPInt.
 ECPInt:  NShTT=    1891 NPrTT=    7533 LenC2=    1819 LenP2D=    5510.
 LDataN:  DoStor=T MaxTD1= 6 Len=  172
 NBasis=   173 RedAO= T EigKep=  2.17D-03  NBF=   173
 NBsUse=   173 1.00D-06 EigRej= -1.00D+00 NBFU=   173
 Initial guess from the checkpoint file:  "/jobfs/7277166.gadi-pbs/Gau-96783.chk"
 B after Tr=    -0.000000   -0.000000   -0.000000
         Rot=    0.999316   -0.000009    0.000016    0.036987 Ang=  -4.24 deg.
 ExpMin= 9.52D-02 ExpMax= 6.95D+04 ExpMxC= 2.37D+03 IAcc=3 IRadAn=         5 AccDes= 0.00D+00
 Harris functional with IExCor= 1009 and IRadAn=       5 diagonalized for initial guess.
 HarFok:  IExCor= 1009 AccDes= 0.00D+00 IRadAn=         5 IDoV= 1 UseB2=F ITyADJ=14
 ICtDFT=  3500011 ScaDFX=  1.000000  1.000000  1.000000  1.000000
 FoFCou: FMM=F IPFlag=           0 FMFlag=      100000 FMFlg1=           0
         NFxFlg=           0 DoJE=T BraDBF=F KetDBF=T FulRan=T
         wScrn=  0.000000 ICntrl=       500 IOpCl=  0 I1Cent=   200000004 NGrid=           0
         NMat0=    1 NMatS0=      1 NMatT0=    0 NMatD0=    1 NMtDS0=    0 NMtDT0=    0
 Petite list used in FoFCou.
 Requested convergence on RMS density matrix=1.00D-08 within 128 cycles.
 Requested convergence on MAX density matrix=1.00D-06.
 Requested convergence on             energy=1.00D-06.
 No special actions if energy rises.
 Integral accuracy reduced to 1.0D-05 until final iterations.
 Initial convergence to 1.0D-05 achieved.  Increase integral accuracy.
 SCF Done:  E(RM06) =  -1518.51063075     A.U. after   13 cycles
            NFock= 13  Conv=0.33D-08     -V/T= 2.0018
 DoSCS=F DFT=T ScalE2(SS,OS)=  1.000000  1.000000
 Range of M.O.s used for correlation:     1   173
 NBasis=   173 NAE=    33 NBE=    33 NFC=     0 NFV=     0
 NROrb=    173 NOA=    33 NOB=    33 NVA=   140 NVB=   140

 **** Warning!!: The largest alpha MO coefficient is  0.10342923D+02

   1 Symmetry operations used in ECPInt.
 ECPInt:  NShTT=    1891 NPrTT=    7533 LenC2=    1819 LenP2D=    5510.
 LDataN:  DoStor=T MaxTD1= 7 Len=  274
 Symmetrizing basis deriv contribution to polar:
 IMax=3 JMax=2 DiffMx= 0.00D+00
 G2DrvN: will do     6 centers at a time, making    1 passes.
 Calling FoFCou, ICntrl=  3107 FMM=F I1Cent=   0 AccDes= 0.00D+00.
 End of G2Drv F.D. properties file   721 does not exist.
 End of G2Drv F.D. properties file   722 does not exist.
 End of G2Drv F.D. properties file   788 does not exist.
          IDoAtm=11111
          Differentiating once with respect to electric field.
                with respect to dipole field.
          Differentiating once with respect to nuclear coordinates.
 CalDSu exits because no D1Ps are significant.
          There are    18 degrees of freedom in the 1st order CPHF.  IDoFFX=6 NUNeed=     3.
     15 vectors produced by pass  0 Test12= 2.57D-14 5.56D-09 XBig12= 4.09D+01 2.34D+00.
 AX will form    15 AO Fock derivatives at one time.
     15 vectors produced by pass  1 Test12= 2.57D-14 5.56D-09 XBig12= 5.92D+00 9.12D-01.
     15 vectors produced by pass  2 Test12= 2.57D-14 5.56D-09 XBig12= 1.81D-01 8.49D-02.
     15 vectors produced by pass  3 Test12= 2.57D-14 5.56D-09 XBig12= 6.08D-03 1.84D-02.
     15 vectors produced by pass  4 Test12= 2.57D-14 5.56D-09 XBig12= 7.69D-05 2.20D-03.
     15 vectors produced by pass  5 Test12= 2.57D-14 5.56D-09 XBig12= 4.41D-07 1.25D-04.
     15 vectors produced by pass  6 Test12= 2.57D-14 5.56D-09 XBig12= 3.50D-09 9.24D-06.
      8 vectors produced by pass  7 Test12= 2.57D-14 5.56D-09 XBig12= 2.07D-11 8.91D-07.
      3 vectors produced by pass  8 Test12= 2.57D-14 5.56D-09 XBig12= 7.74D-14 6.07D-08.
 InvSVY:  IOpt=1 It=  1 EMax= 6.66D-16
 Solved reduced A of dimension   116 with    15 vectors.
 Isotropic polarizability for W=    0.000000       49.24 Bohr**3.
 End of Minotr F.D. properties file   721 does not exist.
 End of Minotr F.D. properties file   722 does not exist.
 End of Minotr F.D. properties file   788 does not exist.
   1 Symmetry operations used in ECPInt.
 ECPInt:  NShTT=    1891 NPrTT=    7533 LenC2=    1819 LenP2D=    5510.
 LDataN:  DoStor=T MaxTD1= 8 Len=  415
 Calling FoFJK, ICntrl=    100127 FMM=F ISym2X=0 I1Cent= 0 IOpClX= 0 NMat=1 NMatS=1 NMatT=0.
 ***** Axes restored to original set *****
 -------------------------------------------------------------------
 Center     Atomic                   Forces (Hartrees/Bohr)
 Number     Number              X              Y              Z
 -------------------------------------------------------------------
      1        6           0.001433758   -0.002879929    0.002983564
      2       17           0.000246627   -0.000089164    0.000067303
      3        9          -0.001627069    0.003165206   -0.003332314
      4       17          -0.000015836    0.000041915    0.000279963
      5       17          -0.000037480   -0.000238027    0.000001484
 -------------------------------------------------------------------
 Cartesian Forces:  Max     0.003332314 RMS     0.001697709
 FormGI is forming the generalized inverse of G from B-inverse, IUseBI=4.

 GradGradGradGradGradGradGradGradGradGradGradGradGradGradGradGradGradGrad
 Berny optimization.
 Using GEDIIS/GDIIS optimizer.
 Internal  Forces:  Max     0.004875420 RMS     0.001309572
 Search for a local minimum.
 Step number   2 out of a maximum of   24
 All quantities printed in internal units (Hartrees-Bohrs-Radians)
 Mixed Optimization -- RFO/linear search
 Second derivative matrix not updated -- analytic derivatives used.
 DE= -1.25D-03 DEPred=-1.42D-03 R= 8.79D-01
 TightC=F SS=  1.41D+00  RLast= 9.16D-02 DXNew= 5.0454D-01 2.7489D-01
 Trust test= 8.79D-01 RLast= 9.16D-02 DXMaxT set to 3.00D-01
 The second derivative matrix:
                          R1        R2        R3        R4        A1
           R1           0.20526
           R2           0.04313   0.43420
           R3           0.02954   0.04312   0.20543
           R4           0.02962   0.04311   0.02959   0.20557
           A1           0.01010   0.00784  -0.00466  -0.01028   0.03887
           A2           0.01034  -0.00259   0.01168  -0.02056  -0.01250
           A3           0.01943  -0.01921  -0.01989   0.01243  -0.02171
           A4          -0.00295   0.01220   0.01629  -0.02118  -0.01298
           A5          -0.01699   0.02429  -0.01948   0.02125  -0.02615
           A6          -0.02017  -0.02144   0.01586   0.01810   0.03445
           D1           0.01667   0.01547   0.01121  -0.03770   0.03207
           D2          -0.01352  -0.01295   0.02940  -0.00781  -0.01855
           D3           0.01244  -0.02989   0.01197  -0.00571  -0.00727
           D4           0.02596  -0.01693  -0.01743   0.00211   0.01128
                          A2        A3        A4        A5        A6
           A2           0.07510
           A3          -0.04348   0.14177
           A4           0.00329   0.03331   0.07737
           A5           0.03348  -0.06224  -0.04811   0.15082
           A6          -0.05530  -0.04888  -0.05249  -0.04592   0.16655
           D1           0.03146  -0.03204   0.03334  -0.04133  -0.02291
           D2           0.02069  -0.01991   0.02535  -0.02306   0.01507
           D3           0.02917   0.00650  -0.00847  -0.02903   0.00800
           D4           0.00847   0.02641  -0.03382  -0.00596  -0.00707
                          D1        D2        D3        D4
           D1           0.07819
           D2           0.00516   0.04854
           D3           0.00332   0.02271   0.04598
           D4          -0.00184  -0.02583   0.02327   0.04910
 ITU=  1  0
 Use linear search instead of GDIIS.
     Eigenvalues ---    0.07745   0.08889   0.10830   0.18483   0.21903
     Eigenvalues ---    0.24361   0.26376   0.26732   0.46956
 RFO step:  Lambda=-6.07213080D-06 EMin= 7.74536673D-02
 Quintic linear search produced a step of -0.12122.
 Iteration  1 RMS(Cart)=  0.00251396 RMS(Int)=  0.00000135
 Iteration  2 RMS(Cart)=  0.00000128 RMS(Int)=  0.00000065
 Iteration  3 RMS(Cart)=  0.00000000 RMS(Int)=  0.00000065
 Variable       Old X    -DE/DX   Delta X   Delta X   Delta X     New X
                                 (Linear)    (Quad)   (Total)
    R1        3.34299   0.00024   0.00135  -0.00271  -0.00136   3.34163
    R2        2.48134   0.00488   0.01084   0.00173   0.01257   2.49390
    R3        3.34291   0.00027   0.00134  -0.00260  -0.00126   3.34165
    R4        3.34295   0.00023   0.00133  -0.00288  -0.00155   3.34140
    A1        1.89909   0.00005  -0.00018  -0.00070  -0.00087   1.89822
    A2        1.92202  -0.00004   0.00013   0.00063   0.00076   1.92278
    A3        1.92195  -0.00011   0.00014   0.00074   0.00088   1.92283
    A4        1.89932   0.00002  -0.00014  -0.00098  -0.00112   1.89820
    A5        1.89932   0.00010  -0.00014  -0.00082  -0.00097   1.89835
    A6        1.92168  -0.00001   0.00018   0.00107   0.00125   1.92293
    D1        2.08025   0.00005  -0.00022  -0.00107  -0.00130   2.07895
    D2       -2.08021  -0.00006   0.00022   0.00091   0.00113  -2.07908
    D3        2.12266  -0.00013   0.00038   0.00197   0.00235   2.12501
    D4       -2.08032  -0.00007   0.00016   0.00106   0.00122  -2.07910
         Item               Value     Threshold  Converged?
 Maximum Force            0.004875     0.000450     NO 
 RMS     Force            0.001310     0.000300     NO 
 Maximum Displacement     0.005344     0.001800     NO 
 RMS     Displacement     0.002514     0.001200     NO 
 Predicted change in Energy=-2.858396D-05
 GradGradGradGradGradGradGradGradGradGradGradGradGradGradGradGradGradGrad

                          Input orientation:                          
 ---------------------------------------------------------------------
 Center     Atomic      Atomic             Coordinates (Angstroms)
 Number     Number       Type             X           Y           Z
 ---------------------------------------------------------------------
      1          6           0       -0.362041    1.381391   -0.053110
      2         17           0        1.406139    1.396389   -0.068988
      3          9           0       -0.801870    2.234085   -0.959264
      4         17           0       -0.961705    1.878892    1.534298
      5         17           0       -0.961663   -0.233258   -0.452935
 ---------------------------------------------------------------------
                    Distance matrix (angstroms):
                    1          2          3          4          5
     1  C    0.000000
     2  Cl   1.768314   0.000000
     3  F    1.319717   2.523813   0.000000
     4  Cl   1.768323   2.900003   2.523799   0.000000
     5  Cl   1.768191   2.899939   2.523823   2.900047   0.000000
 Stoichiometry    CCl3F
 Framework group  C1[X(CCl3F)]
 Deg. of freedom     9
 Full point group                 C1      NOp   1
 Largest Abelian subgroup         C1      NOp   1
 Largest concise Abelian subgroup C1      NOp   1
                         Standard orientation:                         
 ---------------------------------------------------------------------
 Center     Atomic      Atomic             Coordinates (Angstroms)
 Number     Number       Type             X           Y           Z
 ---------------------------------------------------------------------
      1          6           0        0.000035    0.000076    0.259525
      2         17           0        0.518316   -1.592051   -0.309201
      3          9           0       -0.000070    0.000019    1.579242
      4         17           0       -1.637951    0.347159   -0.309250
      5         17           0        1.119660    1.244855   -0.309216
 ---------------------------------------------------------------------
 Rotational constants (GHZ):           2.4621967           2.4620445           1.7184656
 Standard basis: def2TZVP (5D, 7F)
 There are   198 symmetry adapted cartesian basis functions of A   symmetry.
 There are   173 symmetry adapted basis functions of A   symmetry.
   173 basis functions,   309 primitive gaussians,   198 cartesian basis functions
    33 alpha electrons       33 beta electrons
       nuclear repulsion energy       367.6730603360 Hartrees.
 NAtoms=    5 NActive=    5 NUniq=    5 SFac= 1.00D+00 NAtFMM=   60 NAOKFM=F Big=F
 Integral buffers will be    131072 words long.
 Raffenetti 2 integral format.
 Two-electron integral symmetry is turned on.
 One-electron integrals computed using PRISM.
   1 Symmetry operations used in ECPInt.
 ECPInt:  NShTT=    1891 NPrTT=    7533 LenC2=    1819 LenP2D=    5510.
 LDataN:  DoStor=T MaxTD1= 6 Len=  172
 NBasis=   173 RedAO= T EigKep=  2.20D-03  NBF=   173
 NBsUse=   173 1.00D-06 EigRej= -1.00D+00 NBFU=   173
 Initial guess from the checkpoint file:  "/jobfs/7277166.gadi-pbs/Gau-96783.chk"
 B after Tr=     0.000000   -0.000000    0.000000
         Rot=    0.831205    0.000052    0.000063    0.555967 Ang=  67.55 deg.
 Requested convergence on RMS density matrix=1.00D-08 within 128 cycles.
 Requested convergence on MAX density matrix=1.00D-06.
 Requested convergence on             energy=1.00D-06.
 No special actions if energy rises.
 SCF Done:  E(RM06) =  -1518.51065765     A.U. after    8 cycles
            NFock=  8  Conv=0.74D-08     -V/T= 2.0018
 DoSCS=F DFT=T ScalE2(SS,OS)=  1.000000  1.000000
 Range of M.O.s used for correlation:     1   173
 NBasis=   173 NAE=    33 NBE=    33 NFC=     0 NFV=     0
 NROrb=    173 NOA=    33 NOB=    33 NVA=   140 NVB=   140

 **** Warning!!: The largest alpha MO coefficient is  0.10305864D+02

   1 Symmetry operations used in ECPInt.
 ECPInt:  NShTT=    1891 NPrTT=    7533 LenC2=    1819 LenP2D=    5510.
 LDataN:  DoStor=T MaxTD1= 7 Len=  274
 Symmetrizing basis deriv contribution to polar:
 IMax=3 JMax=2 DiffMx= 0.00D+00
 G2DrvN: will do     6 centers at a time, making    1 passes.
 Calling FoFCou, ICntrl=  3107 FMM=F I1Cent=   0 AccDes= 0.00D+00.
 End of G2Drv F.D. properties file   721 does not exist.
 End of G2Drv F.D. properties file   722 does not exist.
 End of G2Drv F.D. properties file   788 does not exist.
          IDoAtm=11111
          Differentiating once with respect to electric field.
                with respect to dipole field.
          Differentiating once with respect to nuclear coordinates.
 CalDSu exits because no D1Ps are significant.
          There are    18 degrees of freedom in the 1st order CPHF.  IDoFFX=6 NUNeed=     3.
     15 vectors produced by pass  0 Test12= 2.57D-14 5.56D-09 XBig12= 4.08D+01 2.10D+00.
 AX will form    15 AO Fock derivatives at one time.
     15 vectors produced by pass  1 Test12= 2.57D-14 5.56D-09 XBig12= 5.93D+00 9.08D-01.
     15 vectors produced by pass  2 Test12= 2.57D-14 5.56D-09 XBig12= 1.80D-01 8.15D-02.
     15 vectors produced by pass  3 Test12= 2.57D-14 5.56D-09 XBig12= 6.09D-03 1.84D-02.
     15 vectors produced by pass  4 Test12= 2.57D-14 5.56D-09 XBig12= 7.48D-05 2.07D-03.
     15 vectors produced by pass  5 Test12= 2.57D-14 5.56D-09 XBig12= 4.27D-07 1.24D-04.
     15 vectors produced by pass  6 Test12= 2.57D-14 5.56D-09 XBig12= 3.40D-09 8.98D-06.
      9 vectors produced by pass  7 Test12= 2.57D-14 5.56D-09 XBig12= 2.03D-11 7.67D-07.
      3 vectors produced by pass  8 Test12= 2.57D-14 5.56D-09 XBig12= 7.56D-14 5.82D-08.
 InvSVY:  IOpt=1 It=  1 EMax= 9.99D-16
 Solved reduced A of dimension   117 with    15 vectors.
 Isotropic polarizability for W=    0.000000       49.23 Bohr**3.
 End of Minotr F.D. properties file   721 does not exist.
 End of Minotr F.D. properties file   722 does not exist.
 End of Minotr F.D. properties file   788 does not exist.
   1 Symmetry operations used in ECPInt.
 ECPInt:  NShTT=    1891 NPrTT=    7533 LenC2=    1819 LenP2D=    5510.
 LDataN:  DoStor=T MaxTD1= 8 Len=  415
 Calling FoFJK, ICntrl=    100127 FMM=F ISym2X=0 I1Cent= 0 IOpClX= 0 NMat=1 NMatS=1 NMatT=0.
 ***** Axes restored to original set *****
 -------------------------------------------------------------------
 Center     Atomic                   Forces (Hartrees/Bohr)
 Number     Number              X              Y              Z
 -------------------------------------------------------------------
      1        6           0.000059933   -0.000009987   -0.000025265
      2       17           0.000031991    0.000036355    0.000021427
      3        9           0.000031088   -0.000052515    0.000054192
      4       17          -0.000069271    0.000045644   -0.000016523
      5       17          -0.000053741   -0.000019498   -0.000033831
 -------------------------------------------------------------------
 Cartesian Forces:  Max     0.000069271 RMS     0.000041120
 FormGI is forming the generalized inverse of G from B-inverse, IUseBI=4.

 GradGradGradGradGradGradGradGradGradGradGradGradGradGradGradGradGradGrad
 Berny optimization.
 Using GEDIIS/GDIIS optimizer.
 Internal  Forces:  Max     0.000082452 RMS     0.000044833
 Search for a local minimum.
 Step number   3 out of a maximum of   24
 All quantities printed in internal units (Hartrees-Bohrs-Radians)
 Mixed Optimization -- En-DIIS/RFO-DIIS
 Second derivative matrix not updated -- analytic derivatives used.
 DE= -2.69D-05 DEPred=-2.86D-05 R= 9.41D-01
 TightC=F SS=  1.41D+00  RLast= 1.34D-02 DXNew= 5.0454D-01 4.0208D-02
 Trust test= 9.41D-01 RLast= 1.34D-02 DXMaxT set to 3.00D-01
 The second derivative matrix:
                          R1        R2        R3        R4        A1
           R1           0.20576
           R2           0.04259   0.41559
           R3           0.02958   0.04256   0.20562
           R4           0.02969   0.04259   0.02958   0.20602
           A1           0.00979   0.00776  -0.00464  -0.01014   0.03861
           A2           0.01022  -0.00257   0.01211  -0.02071  -0.01243
           A3           0.01993  -0.01893  -0.02010   0.01242  -0.02159
           A4          -0.00289   0.01214   0.01600  -0.02107  -0.01288
           A5          -0.01692   0.02394  -0.01917   0.02084  -0.02598
           A6          -0.02041  -0.02117   0.01558   0.01838   0.03426
           D1           0.01625   0.01533   0.01128  -0.03750   0.03185
           D2          -0.01346  -0.01282   0.02928  -0.00771  -0.01842
           D3           0.01250  -0.02966   0.01220  -0.00563  -0.00722
           D4           0.02596  -0.01684  -0.01708   0.00208   0.01121
                          A2        A3        A4        A5        A6
           A2           0.07548
           A3          -0.04404   0.14210
           A4           0.00326   0.03323   0.07688
           A5           0.03358  -0.06209  -0.04790   0.14996
           A6          -0.05519  -0.04895  -0.05215  -0.04555   0.16588
           D1           0.03161  -0.03220   0.03310  -0.04096  -0.02275
           D2           0.02082  -0.02017   0.02519  -0.02290   0.01505
           D3           0.02913   0.00625  -0.00839  -0.02890   0.00795
           D4           0.00831   0.02641  -0.03358  -0.00600  -0.00710
                          D1        D2        D3        D4
           D1           0.07777
           D2           0.00524   0.04840
           D3           0.00337   0.02272   0.04586
           D4          -0.00187  -0.02569   0.02315   0.04883
 ITU=  1  1  0
 Use linear search instead of GDIIS.
     Eigenvalues ---    0.07734   0.08811   0.10858   0.18402   0.21834
     Eigenvalues ---    0.24368   0.26320   0.26673   0.45277
 RFO step:  Lambda=-1.29603126D-07 EMin= 7.73400850D-02
 Quintic linear search produced a step of -0.01287.
 Iteration  1 RMS(Cart)=  0.00028122 RMS(Int)=  0.00000006
 Iteration  2 RMS(Cart)=  0.00000005 RMS(Int)=  0.00000003
 Variable       Old X    -DE/DX   Delta X   Delta X   Delta X     New X
                                 (Linear)    (Quad)   (Total)
    R1        3.34163   0.00003   0.00002  -0.00004  -0.00002   3.34161
    R2        2.49390  -0.00008  -0.00016   0.00004  -0.00012   2.49378
    R3        3.34165   0.00002   0.00002   0.00015   0.00017   3.34182
    R4        3.34140   0.00004   0.00002   0.00015   0.00017   3.34156
    A1        1.89822  -0.00001   0.00001  -0.00010  -0.00009   1.89813
    A2        1.92278  -0.00000  -0.00001   0.00018   0.00017   1.92296
    A3        1.92283   0.00008  -0.00001   0.00044   0.00042   1.92325
    A4        1.89820  -0.00003   0.00001  -0.00032  -0.00030   1.89789
    A5        1.89835  -0.00005   0.00001  -0.00024  -0.00022   1.89813
    A6        1.92293   0.00001  -0.00002   0.00002   0.00001   1.92293
    D1        2.07895  -0.00003   0.00002  -0.00021  -0.00020   2.07876
    D2       -2.07908  -0.00000  -0.00001   0.00001  -0.00000  -2.07908
    D3        2.12501   0.00006  -0.00003   0.00053   0.00050   2.12551
    D4       -2.07910   0.00006  -0.00002   0.00052   0.00050  -2.07860
         Item               Value     Threshold  Converged?
 Maximum Force            0.000082     0.000450     YES
 RMS     Force            0.000045     0.000300     YES
 Maximum Displacement     0.000505     0.001800     YES
 RMS     Displacement     0.000281     0.001200     YES
 Predicted change in Energy=-7.111251D-08
 Optimization completed.
    -- Stationary point found.
                           ----------------------------
                           !   Optimized Parameters   !
                           ! (Angstroms and Degrees)  !
 --------------------------                            --------------------------
 ! Name  Definition              Value          Derivative Info.                !
 --------------------------------------------------------------------------------
 ! R1    R(1,2)                  1.7683         -DE/DX =    0.0                 !
 ! R2    R(1,3)                  1.3197         -DE/DX =   -0.0001              !
 ! R3    R(1,4)                  1.7683         -DE/DX =    0.0                 !
 ! R4    R(1,5)                  1.7682         -DE/DX =    0.0                 !
 ! A1    A(2,1,3)              108.76           -DE/DX =    0.0                 !
 ! A2    A(2,1,4)              110.1674         -DE/DX =    0.0                 !
 ! A3    A(2,1,5)              110.1699         -DE/DX =    0.0001              !
 ! A4    A(3,1,4)              108.7586         -DE/DX =    0.0                 !
 ! A5    A(3,1,5)              108.7677         -DE/DX =    0.0                 !
 ! A6    A(4,1,5)              110.1756         -DE/DX =    0.0                 !
 ! D1    D(2,1,4,3)            119.1152         -DE/DX =    0.0                 !
 ! D2    D(2,1,5,3)           -119.1222         -DE/DX =    0.0                 !
 ! D3    D(2,1,5,4)            121.7539         -DE/DX =    0.0001              !
 ! D4    D(3,1,5,4)           -119.1239         -DE/DX =    0.0001              !
 --------------------------------------------------------------------------------
 GradGradGradGradGradGradGradGradGradGradGradGradGradGradGradGradGradGrad

                          Input orientation:                          
 ---------------------------------------------------------------------
 Center     Atomic      Atomic             Coordinates (Angstroms)
 Number     Number       Type             X           Y           Z
 ---------------------------------------------------------------------
      1          6           0       -0.362041    1.381391   -0.053110
      2         17           0        1.406139    1.396389   -0.068988
      3          9           0       -0.801870    2.234085   -0.959264
      4         17           0       -0.961705    1.878892    1.534298
      5         17           0       -0.961663   -0.233258   -0.452935
 ---------------------------------------------------------------------
                    Distance matrix (angstroms):
                    1          2          3          4          5
     1  C    0.000000
     2  Cl   1.768314   0.000000
     3  F    1.319717   2.523813   0.000000
     4  Cl   1.768323   2.900003   2.523799   0.000000
     5  Cl   1.768191   2.899939   2.523823   2.900047   0.000000
 Stoichiometry    CCl3F
 Framework group  C1[X(CCl3F)]
 Deg. of freedom     9
 Full point group                 C1      NOp   1
 Largest Abelian subgroup         C1      NOp   1
 Largest concise Abelian subgroup C1      NOp   1
                         Standard orientation:                         
 ---------------------------------------------------------------------
 Center     Atomic      Atomic             Coordinates (Angstroms)
 Number     Number       Type             X           Y           Z
 ---------------------------------------------------------------------
      1          6           0        0.000035    0.000076    0.259525
      2         17           0        0.518316   -1.592051   -0.309201
      3          9           0       -0.000070    0.000019    1.579242
      4         17           0       -1.637951    0.347159   -0.309250
      5         17           0        1.119660    1.244855   -0.309216
 ---------------------------------------------------------------------
 Rotational constants (GHZ):           2.4621967           2.4620445           1.7184656

 **********************************************************************

            Population analysis using the SCF Density.

 **********************************************************************

 Orbital symmetries:
       Occupied  (A) (A) (A) (A) (A) (A) (A) (A) (A) (A) (A) (A)
                 (A) (A) (A) (A) (A) (A) (A) (A) (A) (A) (A) (A)
                 (A) (A) (A) (A) (A) (A) (A) (A) (A)
       Virtual   (A) (A) (A) (A) (A) (A) (A) (A) (A) (A) (A) (A)
                 (A) (A) (A) (A) (A) (A) (A) (A) (A) (A) (A) (A)
                 (A) (A) (A) (A) (A) (A) (A) (A) (A) (A) (A) (A)
                 (A) (A) (A) (A) (A) (A) (A) (A) (A) (A) (A) (A)
                 (A) (A) (A) (A) (A) (A) (A) (A) (A) (A) (A) (A)
                 (A) (A) (A) (A) (A) (A) (A) (A) (A) (A) (A) (A)
                 (A) (A) (A) (A) (A) (A) (A) (A) (A) (A) (A) (A)
                 (A) (A) (A) (A) (A) (A) (A) (A) (A) (A) (A) (A)
                 (A) (A) (A) (A) (A) (A) (A) (A) (A) (A) (A) (A)
                 (A) (A) (A) (A) (A) (A) (A) (A) (A) (A) (A) (A)
                 (A) (A) (A) (A) (A) (A) (A) (A) (A) (A) (A) (A)
                 (A) (A) (A) (A) (A) (A) (A) (A)
 The electronic state is 1-A.
 Alpha  occ. eigenvalues -- -101.74760-101.74759-101.74755 -24.84043 -10.50857
 Alpha  occ. eigenvalues --   -9.61898  -9.61897  -9.61894  -7.33053  -7.33052
 Alpha  occ. eigenvalues --   -7.33049  -7.32032  -7.32031  -7.32027  -7.32024
 Alpha  occ. eigenvalues --   -7.32023  -7.32020  -1.33578  -0.96429  -0.88106
 Alpha  occ. eigenvalues --   -0.88103  -0.69429  -0.57953  -0.56968  -0.56968
 Alpha  occ. eigenvalues --   -0.44974  -0.44973  -0.38804  -0.37574  -0.37573
 Alpha  occ. eigenvalues --   -0.34625  -0.34624  -0.33203
 Alpha virt. eigenvalues --   -0.04608   0.00773   0.00776   0.08809   0.12789
 Alpha virt. eigenvalues --    0.18961   0.18964   0.25159   0.26979   0.26979
 Alpha virt. eigenvalues --    0.31747   0.31748   0.33507   0.33509   0.33853
 Alpha virt. eigenvalues --    0.35395   0.35501   0.35502   0.35745   0.38270
 Alpha virt. eigenvalues --    0.41408   0.41410   0.43535   0.45012   0.47017
 Alpha virt. eigenvalues --    0.47017   0.56916   0.56916   0.61147   0.62793
 Alpha virt. eigenvalues --    0.62795   0.66220   0.76631   0.76858   0.76861
 Alpha virt. eigenvalues --    0.92136   0.95597   0.95603   0.98536   0.98539
 Alpha virt. eigenvalues --    1.02383   1.05784   1.05787   1.06534   1.41858
 Alpha virt. eigenvalues --    1.63627   1.63629   1.65787   1.68096   1.68098
 Alpha virt. eigenvalues --    1.71752   1.74133   1.74135   1.74896   1.75595
 Alpha virt. eigenvalues --    1.75597   1.77090   1.77699   1.77703   1.83571
 Alpha virt. eigenvalues --    1.88387   1.88389   1.88733   1.92059   1.92062
 Alpha virt. eigenvalues --    1.95988   2.02858   2.02860   2.06115   2.06422
 Alpha virt. eigenvalues --    2.06423   2.06710   2.06710   2.06835   2.13812
 Alpha virt. eigenvalues --    2.13815   2.16038   2.16039   2.18676   2.18684
 Alpha virt. eigenvalues --    2.18760   2.18855   2.20905   2.20910   2.22747
 Alpha virt. eigenvalues --    2.22749   2.24420   2.26488   2.30423   2.44865
 Alpha virt. eigenvalues --    2.54065   2.54068   2.59072   2.78999   2.79003
 Alpha virt. eigenvalues --    3.00773   3.00778   3.01007   3.14303   3.14305
 Alpha virt. eigenvalues --    3.31151   3.43605   3.45539   3.45548   3.49500
 Alpha virt. eigenvalues --    3.49505   3.56042   3.83085   3.83089   3.91669
 Alpha virt. eigenvalues --    3.91813   3.91816   4.08333   5.12440   6.84458
 Alpha virt. eigenvalues --    6.84550   6.96112   6.96113   7.23205   7.23207
 Alpha virt. eigenvalues --    7.29867   8.39453   8.39455   8.85328   8.85329
 Alpha virt. eigenvalues --    8.99072  10.78806  10.79404  10.79406  10.80582
 Alpha virt. eigenvalues --   10.86420  10.86421  11.30029  11.30033  11.35835
 Alpha virt. eigenvalues --   21.87347  25.15704  25.15737  25.24517  57.04649
          Condensed to atoms (all electrons):
               1          2          3          4          5
     1  C    4.292768   0.364023   0.290737   0.363881   0.363916
     2  Cl   0.364023  16.908167  -0.058692  -0.078415  -0.078437
     3  F    0.290737  -0.058692   9.040227  -0.058686  -0.058672
     4  Cl   0.363881  -0.078415  -0.058686  16.908212  -0.078407
     5  Cl   0.363916  -0.078437  -0.058672  -0.078407  16.908134
 Mulliken charges:
               1
     1  C    0.324675
     2  Cl  -0.056645
     3  F   -0.154913
     4  Cl  -0.056583
     5  Cl  -0.056534
 Sum of Mulliken charges =  -0.00000
 Mulliken charges with hydrogens summed into heavy atoms:
               1
     1  C    0.324675
     2  Cl  -0.056645
     3  F   -0.154913
     4  Cl  -0.056583
     5  Cl  -0.056534
 APT charges:
               1
     1  C    1.651270
     2  Cl  -0.351261
     3  F   -0.598449
     4  Cl  -0.350546
     5  Cl  -0.351014
 Sum of APT charges =  -0.00000
 APT charges with hydrogens summed into heavy atoms:
               1
     1  C    1.651270
     2  Cl  -0.351261
     3  F   -0.598449
     4  Cl  -0.350546
     5  Cl  -0.351014
 Electronic spatial extent (au):  <R**2>=            714.3716
 Charge=              0.0000 electrons
 Dipole moment (field-independent basis, Debye):
    X=              0.0007    Y=              0.0005    Z=             -0.3088  Tot=              0.3088
 Quadrupole moment (field-independent basis, Debye-Ang):
   XX=            -46.3276   YY=            -46.3279   ZZ=            -48.3091
   XY=              0.0007   XZ=             -0.0005   YZ=             -0.0004
 Traceless Quadrupole moment (field-independent basis, Debye-Ang):
   XX=              0.6606   YY=              0.6603   ZZ=             -1.3209
   XY=              0.0007   XZ=             -0.0005   YZ=             -0.0004
 Octapole moment (field-independent basis, Debye-Ang**2):
  XXX=             -3.6360  YYY=             -2.6311  ZZZ=              6.7910  XYY=              3.6374
  XXY=              2.6337  XXZ=              0.2740  XZZ=              0.0001  YZZ=              0.0011
  YYZ=              0.2748  XYZ=             -0.0003
 Hexadecapole moment (field-independent basis, Debye-Ang**3):
 XXXX=           -339.9232 YYYY=           -339.9019 ZZZZ=           -143.9324 XXXY=              0.0042
 XXXZ=              3.6859 YYYX=              0.0016 YYYZ=              2.6687 ZZZX=             -0.0011
 ZZZY=             -0.0016 XXYY=           -113.3054 XXZZ=            -82.3616 YYZZ=            -82.3592
 XXYZ=             -2.6704 YYXZ=             -3.6893 ZZXY=              0.0006
 N-N= 3.676730603360D+02 E-N=-4.345085167178D+03  KE= 1.515780092262D+03
  Exact polarizability:      54.608       0.002      54.601       0.005       0.003      38.474
 Approx polarizability:      81.836      -0.000      81.830       0.002       0.000      61.977
 Rotating derivatives to standard orientation.
 Full mass-weighted force constant matrix:
 Low frequencies ---  -10.8960    0.0036    0.0052    0.0059    7.1101   10.5712
 Low frequencies ---  243.5163  244.2225  349.5449
 Diagonal vibrational polarizability:
       12.0338375      12.0644508       4.6559347
 Harmonic frequencies (cm**-1), IR intensities (KM/Mole), Raman scattering
 activities (A**4/AMU), depolarization ratios for plane and unpolarized
 incident light, reduced masses (AMU), force constants (mDyne/A),
 and normal coordinates:
                      1                      2                      3
                      A                      A                      A
 Frequencies --    243.5149               244.2225               349.5448
 Red. masses --     30.0053                30.0043                25.5053
 Frc consts  --      1.0483                 1.0544                 1.8361
 IR Inten    --      0.0326                 0.0339                 0.1578
  Atom  AN      X      Y      Z        X      Y      Z        X      Y      Z
     1   6    -0.05  -0.20  -0.00     0.20  -0.05   0.00     0.00   0.00   0.47
     2  17     0.36  -0.18   0.19    -0.41  -0.31   0.11    -0.12   0.36  -0.15
     3   9    -0.11  -0.49  -0.00     0.49  -0.11   0.00    -0.00  -0.00   0.52
     4  17     0.11   0.55   0.00     0.33  -0.06  -0.22     0.37  -0.08  -0.15
     5  17    -0.40  -0.03  -0.19    -0.25   0.45   0.11    -0.26  -0.29  -0.15
                      4                      5                      6
                      A                      A                      A
 Frequencies --    403.3950               403.5682               541.4371
 Red. masses --     25.3006                25.2997                22.4173
 Frc consts  --      2.4257                 2.4277                 3.8719
 IR Inten    --      0.4078                 0.4078                 3.1111
  Atom  AN      X      Y      Z        X      Y      Z        X      Y      Z
     1   6     0.03  -0.08   0.00    -0.08  -0.03   0.00     0.00   0.00   0.54
     2  17     0.12  -0.37  -0.31     0.13   0.03  -0.01     0.09  -0.28  -0.17
     3   9    -0.26   0.73   0.00     0.73   0.26   0.00    -0.00  -0.00   0.60
     4  17     0.22   0.07   0.16    -0.31   0.14  -0.26    -0.28   0.06  -0.17
     5  17    -0.21  -0.06   0.15    -0.18  -0.30   0.27     0.20   0.22  -0.17
                      7                      8                      9
                      A                      A                      A
 Frequencies --    816.6937               817.3629              1149.9461
 Red. masses --     12.8544                12.8533                13.7823
 Frc consts  --      5.0515                 5.0594                10.7381
 IR Inten    --    297.0059               296.6635               213.0467
  Atom  AN      X      Y      Z        X      Y      Z        X      Y      Z
     1   6    -0.10   0.97  -0.00     0.97   0.10  -0.00    -0.00  -0.00   0.86
     2  17     0.04  -0.13  -0.02    -0.04   0.02   0.00     0.00  -0.00  -0.01
     3   9     0.01  -0.13  -0.00    -0.13  -0.01  -0.00     0.00  -0.00  -0.50
     4  17     0.04  -0.04   0.01    -0.13   0.02  -0.02    -0.00   0.00  -0.01
     5  17    -0.04  -0.09   0.01    -0.09  -0.06   0.02     0.00   0.00  -0.01

 -------------------
 - Thermochemistry -
 -------------------
 Temperature   298.150 Kelvin.  Pressure   1.00000 Atm.
 Atom     1 has atomic number  6 and mass  12.00000
 Atom     2 has atomic number 17 and mass  34.96885
 Atom     3 has atomic number  9 and mass  18.99840
 Atom     4 has atomic number 17 and mass  34.96885
 Atom     5 has atomic number 17 and mass  34.96885
 Molecular mass:   135.90496 amu.
 Principal axes and moments of inertia in atomic units:
                           1         2         3
     Eigenvalues --   732.98012 733.025411050.20505
           X            1.00000   0.00000   0.00000
           Y           -0.00000   1.00000  -0.00000
           Z           -0.00000   0.00000   1.00000
 This molecule is an asymmetric top.
 Rotational symmetry number  1.
 Warning -- assumption of classical behavior for rotation
           may cause significant error
 Rotational temperatures (Kelvin)      0.11817     0.11816     0.08247
 Rotational constants (GHZ):           2.46220     2.46204     1.71847
 Zero-point vibrational energy      29725.3 (Joules/Mol)
                                    7.10452 (Kcal/Mol)
 Warning -- explicit consideration of   6 degrees of freedom as
           vibrations may cause significant error
 Vibrational temperatures:    350.36   351.38   502.92   580.40   580.64
          (Kelvin)            779.01  1175.04  1176.00  1654.52
 
 Zero-point correction=                           0.011322 (Hartree/Particle)
 Thermal correction to Energy=                    0.016481
 Thermal correction to Enthalpy=                  0.017426
 Thermal correction to Gibbs Free Energy=        -0.018720
 Sum of electronic and zero-point Energies=          -1518.499336
 Sum of electronic and thermal Energies=             -1518.494176
 Sum of electronic and thermal Enthalpies=           -1518.493232
 Sum of electronic and thermal Free Energies=        -1518.529378
 
                     E (Thermal)             CV                S
                      KCal/Mol        Cal/Mol-Kelvin    Cal/Mol-Kelvin
 Total                   10.342             16.653             76.075
 Electronic               0.000              0.000              0.000
 Translational            0.889              2.981             40.632
 Rotational               0.889              2.981             27.825
 Vibrational              8.565             10.692              7.618
 Vibration     1          0.659              1.773              1.777
 Vibration     2          0.660              1.772              1.772
 Vibration     3          0.727              1.576              1.168
 Vibration     4          0.769              1.463              0.950
 Vibration     5          0.769              1.462              0.950
 Vibration     6          0.897              1.158              0.562
                       Q            Log10(Q)             Ln(Q)
 Total Bot       0.408092D+09          8.610758         19.827003
 Total V=0       0.658277D+14         13.818409         31.818062
 Vib (Bot)       0.243704D-04         -4.613137        -10.622141
 Vib (Bot)    1  0.803912D+00         -0.094791         -0.218265
 Vib (Bot)    2  0.801321D+00         -0.096194         -0.221494
 Vib (Bot)    3  0.527983D+00         -0.277380         -0.638691
 Vib (Bot)    4  0.440739D+00         -0.355818         -0.819302
 Vib (Bot)    5  0.440494D+00         -0.356060         -0.819859
 Vib (Bot)    6  0.292221D+00         -0.534289         -1.230245
 Vib (V=0)       0.393110D+01          0.594514          1.368919
 Vib (V=0)    1  0.144672D+01          0.160384          0.369298
 Vib (V=0)    2  0.144452D+01          0.159723          0.367776
 Vib (V=0)    3  0.122716D+01          0.088902          0.204705
 Vib (V=0)    4  0.116652D+01          0.066893          0.154026
 Vib (V=0)    5  0.116636D+01          0.066832          0.153887
 Vib (V=0)    6  0.107913D+01          0.033074          0.076156
 Electronic      0.100000D+01          0.000000          0.000000
 Translational   0.622740D+08          7.794307         17.947055
 Rotational      0.268898D+06          5.429588         12.502089
 ***** Axes restored to original set *****
 -------------------------------------------------------------------
 Center     Atomic                   Forces (Hartrees/Bohr)
 Number     Number              X              Y              Z
 -------------------------------------------------------------------
      1        6           0.000059933   -0.000009987   -0.000025265
      2       17           0.000031991    0.000036355    0.000021427
      3        9           0.000031088   -0.000052515    0.000054192
      4       17          -0.000069271    0.000045644   -0.000016523
      5       17          -0.000053741   -0.000019498   -0.000033831
 -------------------------------------------------------------------
 Cartesian Forces:  Max     0.000069271 RMS     0.000041120

 ----------------------------------------------------------------------

 Electric dipole moment (input orientation):
 (Debye = 10**-18 statcoulomb cm , SI units = C m)
                  (au)            (Debye)         (10**-30 SI)
   Tot        0.121507D+00      0.308840D+00      0.103018D+01
   x          0.404098D-01      0.102711D+00      0.342608D+00
   y         -0.787548D-01     -0.200175D+00     -0.667711D+00
   z          0.832386D-01      0.211572D+00      0.705727D+00

 Dipole polarizability, Alpha (input orientation).
 (esu units = cm**3 , SI units = C**2 m**2 J**-1)
 Alpha(0;0):
               (au)            (10**-24 esu)      (10**-40 SI)
   iso        0.492277D+02      0.729479D+01      0.811655D+01
   aniso      0.161311D+02      0.239038D+01      0.265966D+01
   xx         0.528101D+02      0.782564D+01      0.870720D+01
   yx         0.347283D+01      0.514620D+00      0.572592D+00
   yy         0.478681D+02      0.709333D+01      0.789239D+01
   zx        -0.368937D+01     -0.546708D+00     -0.608295D+00
   zy         0.715920D+01      0.106088D+01      0.118039D+01
   zz         0.470049D+02      0.696540D+01      0.775005D+01

 ----------------------------------------------------------------------

 Dipole orientation:
     6         -0.27193656          1.80707247         -1.98825058
    17          2.86372058          2.23633711         -0.91592942
     9         -0.27291865          1.80049705         -4.48214581
    17         -2.20812830          4.31216429         -0.91947707
    17         -1.46972792         -1.11813850         -0.90502806

 Electric dipole moment (dipole orientation):
 (Debye = 10**-18 statcoulomb cm , SI units = C m)
                  (au)            (Debye)         (10**-30 SI)
   Tot        0.121507D+00      0.308840D+00      0.103018D+01
   x          0.000000D+00      0.000000D+00      0.000000D+00
   y          0.000000D+00      0.000000D+00      0.000000D+00
   z          0.121507D+00      0.308840D+00      0.103018D+01

 Dipole polarizability, Alpha (dipole orientation).
 (esu units = cm**3 , SI units = C**2 m**2 J**-1)
 Alpha(0;0):
               (au)            (10**-24 esu)      (10**-40 SI)
   iso        0.492277D+02      0.729479D+01      0.811655D+01
   aniso      0.161311D+02      0.239038D+01      0.265966D+01
   xx         0.546010D+02      0.809104D+01      0.900249D+01
   yx        -0.160731D-02     -0.238179D-03     -0.265009D-03
   yy         0.546083D+02      0.809212D+01      0.900370D+01
   zx        -0.593439D-02     -0.879386D-03     -0.978449D-03
   zy        -0.384328D-01     -0.569515D-02     -0.633671D-02
   zz         0.384737D+02      0.570122D+01      0.634346D+01

 ----------------------------------------------------------------------
 Unable to Open any file for archive entry.
 1\1\GINC-GADI-CPU-CLX-2631\Freq\RM06\def2TZVP\C1Cl3F1\PK8622\18-Jun-20
 20\0\\# M06/Def2TZVP Freq=(anharmonic,ReadAnharm) Opt=CalcAll\\Anharmo
 nic frequencies for trichlorofluoromethane using VPT2\\0,1\C,-0.362040
 5294,1.3813914109,-0.0531096027\Cl,1.4061386569,1.3963890568,-0.068988
 4869\F,-0.8018703865,2.2340852163,-0.9592643911\Cl,-0.9617047717,1.878
 8922094,1.5342978125\Cl,-0.9616629693,-0.2332578933,-0.4529353317\\Ver
 sion=ES64L-G16RevC.01\State=1-A\HF=-1518.5106577\RMSD=7.432e-09\RMSF=4
 .112e-05\ZeroPoint=0.0113218\Thermal=0.0164813\ETot=-1518.4941763\HTot
 =-1518.4932321\GTot=-1518.529378\Dipole=0.0404098,-0.0787548,0.0832386
 \DipoleDeriv=1.7465649,0.0910669,-0.0964065,0.0912759,1.6150587,0.1889
 692,-0.096968,0.1875943,1.5921859,-0.8383763,-0.0731677,0.0778415,-0.0
 656659,-0.1100289,-0.0380095,0.0695383,-0.0379793,-0.1053779,-0.433094
 1,0.1603503,-0.170158,0.160505,-0.6610583,0.3301249,-0.1701628,0.32995
 64,-0.7011947,-0.2375858,0.074514,0.2486171,0.0728157,-0.1931582,-0.24
 91537,0.2549286,-0.2581776,-0.6208946,-0.2375088,-0.2527635,-0.0598941
 ,-0.2589307,-0.6508133,-0.2319309,-0.057336,-0.2213938,-0.1647188\Pola
 r=52.8100677,3.4728295,47.8681433,-3.6893698,7.1592018,47.0048618\PG=C
 01 [X(C1Cl3F1)]\NImag=0\\0.28585476,-0.03183793,0.33133229,0.03356948,
 -0.06510653,0.33892219,-0.10958738,-0.00494946,0.00497865,0.20582236,-
 0.00762889,-0.03234422,-0.00079059,-0.00071659,0.03716308,0.00770225,-
 0.00085039,-0.03227288,0.00113700,-0.00020555,0.03714353,-0.08831180,0
 .05452151,-0.05796039,-0.04130072,0.02586304,-0.02745690,0.10978394,0.
 05449644,-0.16581818,0.11225370,0.02115912,0.00028077,0.00873491,-0.07
 411206,0.21524861,-0.05794852,0.11222857,-0.17964689,-0.02244774,0.008
 74489,-0.00070212,0.07874281,-0.15252865,0.23383558,-0.04392469,0.0097
 7134,0.02718923,-0.02743073,0.00856845,0.02556284,0.00997299,-0.001890
 75,-0.00019217,0.05517085,0.01035504,-0.04151678,-0.02621421,0.0056003
 3,0.00443547,-0.00374782,-0.00281184,0.00874893,0.01654171,-0.01519720
 ,0.04903037,0.02504635,-0.02313904,-0.08832669,0.02071976,-0.00476597,
 -0.00906078,0.00369705,0.01092238,-0.06031646,-0.05056504,0.04056940,0
 .17522951,-0.04403089,-0.02750546,-0.00777697,-0.02750352,-0.02608601,
 -0.00694520,0.00985559,0.00034725,0.00184562,0.00621158,0.00205367,0.0
 0110188,0.05546724,-0.02538465,-0.09165311,-0.02014238,-0.02109341,-0.
 00953510,-0.00393115,-0.00346065,-0.05846012,0.01501349,-0.00125184,-0
 .02069799,-0.02358677,0.05119054,0.18034632,-0.00836957,-0.02313261,-0
 .03867574,-0.00438767,-0.00298278,0.00489225,0.00297744,0.02061766,0.0
 0682989,-0.00199487,-0.02714909,-0.01752558,0.01177467,0.03264681,0.04
 447918\\-0.00005993,0.00000999,0.00002527,-0.00003199,-0.00003636,-0.0
 0002143,-0.00003109,0.00005251,-0.00005419,0.00006927,-0.00004564,0.00
 001652,0.00005374,0.00001950,0.00003383\\\@
 The archive entry for this job was punched.


 IF YOU WISH TO UNDERSTAND THE FRAGRANCE OF THE ROSE, 
 OR THE TENACITY OF THE OAK; 
 IF YOU ARE NOT SATISFIED UNTIL YOU KNOW THE SECRET PATHS 
 BY WHICH THE SUNSHINE AND THE AIR ACHIEVE THESE WONDERS; 
 IF YOU WISH TO SEE THE PATTERN WHICH UNDERLIES ONE LARGE FIELD OF 
 HUMAN EXPERIENCE AND HUMAN MEASUREMENT, THEN TAKE UP CHEMISTRY.

                                         -- C. A. COULSON, 1973.
 Job cpu time:       0 days  0 hours 24 minutes 28.8 seconds.
 Elapsed time:       0 days  0 hours 24 minutes 28.9 seconds.
 File lengths (MBytes):  RWF=     31 Int=      0 D2E=      0 Chk=      4 Scr=      1
 Normal termination of Gaussian 16 at Thu Jun 18 15:00:35 2020.
 Link1:  Proceeding to internal job step number  2.
 ------------------------------------------------------------------
 #N Geom=AllCheck Guess=TCheck SCRF=Check GenChk RM06/def2TZVP Freq
 ------------------------------------------------------------------
 1/10=4,29=7,30=1,38=21,40=1,80=1/1,6,3;
 2/12=2,40=1/2;
 3/5=44,7=101,11=2,14=-4,25=1,30=1,70=2,71=2,74=-54,116=1,140=1/1,2,3;
 4/5=101,69=2/1;
 5/5=2,38=6,98=1/2;
 8/6=4,10=90,11=11/1;
 11/6=1,8=1,9=11,15=111,16=1/1,2,10;
 10/6=1,60=-2/2;
 6/7=2,8=2,9=2,10=2,28=1/1;
 7/10=1,25=1,71=2,72=1/1,2,3,16;
 1/38=20,80=1/6(3);
 7/8=1,25=202,44=-1,71=1,72=1,92=10/16,17;
 1/10=4,30=1,38=20,80=1/3;
 99//99;
 3/5=44,7=101,11=2,14=-2,25=1,30=1,70=5,71=2,74=-54,116=1,140=1/1,2,3;
 4/5=5,16=3,69=2/1;
 5/5=2,38=5,98=1/2;
 8/6=4,10=90,11=11/1;
 11/6=1,8=1,9=11,15=111,16=1/1,2,10;
 10/6=1,60=-2/2;
 6/7=2,8=2,9=2,10=2,28=1/1;
 7/7=1,10=1,25=1,71=1,72=1/1,2,3,16;
 1/38=20,80=1/6(-8);
 7/8=1,25=202,44=-1,71=1,72=1,92=10/16,17;
 1/10=4,30=1,38=20,80=1/3;
 99//99;
 Structure from the checkpoint file:  "/jobfs/7277166.gadi-pbs/Gau-96783.chk"
 ------------------------------------------------------------
 Anharmonic frequencies for trichlorofluoromethane using VPT2
 ------------------------------------------------------------
 Charge =  0 Multiplicity = 1
 Redundant internal coordinates found in file.  (old form).
 C,0,-0.3620405294,1.3813914109,-0.0531096027
 Cl,0,1.4061386569,1.3963890568,-0.0689884869
 F,0,-0.8018703865,2.2340852163,-0.9592643911
 Cl,0,-0.9617047717,1.8788922094,1.5342978125
 Cl,0,-0.9616629693,-0.2332578933,-0.4529353317
 Recover connectivity data from disk.
 Numerical evaluation of third derivatives.
 Nuclear step= 0.010000 Angstroms, electric field step= 0.000333 atomic units, NStep=1.

 GradGradGradGradGradGradGradGradGradGradGradGradGradGradGradGradGradGrad
 Berny optimization.
 Initialization pass.
                           ----------------------------
                           !    Initial Parameters    !
                           ! (Angstroms and Degrees)  !
 --------------------------                            --------------------------
 ! Name  Definition              Value          Derivative Info.                !
 --------------------------------------------------------------------------------
 ! R1    R(1,2)                  1.7683         calculate D2E/DX2 analytically  !
 ! R2    R(1,3)                  1.3197         calculate D2E/DX2 analytically  !
 ! R3    R(1,4)                  1.7683         calculate D2E/DX2 analytically  !
 ! R4    R(1,5)                  1.7682         calculate D2E/DX2 analytically  !
 ! A1    A(2,1,3)              108.76           calculate D2E/DX2 analytically  !
 ! A2    A(2,1,4)              110.1674         calculate D2E/DX2 analytically  !
 ! A3    A(2,1,5)              110.1699         calculate D2E/DX2 analytically  !
 ! A4    A(3,1,4)              108.7586         calculate D2E/DX2 analytically  !
 ! A5    A(3,1,5)              108.7677         calculate D2E/DX2 analytically  !
 ! A6    A(4,1,5)              110.1756         calculate D2E/DX2 analytically  !
 ! D1    D(2,1,4,3)            119.1152         calculate D2E/DX2 analytically  !
 ! D2    D(2,1,5,3)           -119.1222         calculate D2E/DX2 analytically  !
 ! D3    D(2,1,5,4)            121.7539         calculate D2E/DX2 analytically  !
 ! D4    D(3,1,5,4)           -119.1239         calculate D2E/DX2 analytically  !
 --------------------------------------------------------------------------------
 Trust Radius=3.00D-01 FncErr=1.00D-07 GrdErr=1.00D-07 EigMax=2.50D+02 EigMin=1.00D-04
 Number of steps in this run=      2 maximum allowed number of steps=      2.
 GradGradGradGradGradGradGradGradGradGradGradGradGradGradGradGradGradGrad

                          Input orientation:                          
 ---------------------------------------------------------------------
 Center     Atomic      Atomic             Coordinates (Angstroms)
 Number     Number       Type             X           Y           Z
 ---------------------------------------------------------------------
      1          6           0       -0.362041    1.381391   -0.053110
      2         17           0        1.406139    1.396389   -0.068988
      3          9           0       -0.801870    2.234085   -0.959264
      4         17           0       -0.961705    1.878892    1.534298
      5         17           0       -0.961663   -0.233258   -0.452935
 ---------------------------------------------------------------------
                    Distance matrix (angstroms):
                    1          2          3          4          5
     1  C    0.000000
     2  Cl   1.768314   0.000000
     3  F    1.319717   2.523813   0.000000
     4  Cl   1.768323   2.900003   2.523799   0.000000
     5  Cl   1.768191   2.899939   2.523823   2.900047   0.000000
 Stoichiometry    CCl3F
[...]
 ,0.00454723,0.03758851,0.00199037,0.01078486,0.00240428,0.00337507,0.0
 0222912,0.00049525,-0.00224640,0.00018611,0.00025529,-0.00007109,-0.00
 055358,-0.00039075,-0.00304795,0.01046866,0.02560512,0.00896772,0.0018
 7193,0.00024556,0.00009725,0.00076266,0.01446230,-0.00629036,-0.000456
 74,-0.00124851,0.00017403,-0.01264651,-0.03906446,0.00233582,0.0089034
 2,-0.00042141,0.00077631,0.00026148,-0.00044630,0.00013376,-0.00641489
 ,0.00015388,-0.00048181,0.00019863,0.00137726,-0.00276407,-0.00294864,
 -0.00066342,0.05577894,0.00858809,0.04410001,-0.00991141,0.01846324,0.
 04278255,-0.04762704,-0.00238657,0.00374814,0.06600649,-0.00166375,0.0
 0260688,-0.00066055,-0.00043449,-0.00197338,0.00303057,-0.00067253,0.0
 0332871,-0.00073972,-0.00030875,-0.00246907,0.00082801,0.00518896,-0.0
 0556041,-0.01114509,0.00489916,-0.00525319,0.00704902,0.00516267,-0.00
 657804,0.01071493,0.00408550,0.00014606,0.00178743,-0.00831873,0.01882
 762,-0.00556966,0.01072171,-0.00796294,-0.00435131,0.00175760,-0.00013
 925,0.00890276,-0.01710434,0.02112058,-0.00473950,0.00570688,0.0163342
 7,-0.00359704,0.00094520,0.00370547,0.00166413,0.00000320,0.00099100,0
 .00572833,0.00558792,-0.00259541,-0.01464046,0.00107252,0.00062592,-0.
 00064241,-0.00016804,0.00151875,0.00227959,-0.00668772,0.00323241,0.01
 691392,-0.01545217,-0.03714460,0.00227610,-0.00026521,-0.00139768,0.00
 168846,0.00129247,-0.01413935,-0.02089623,0.01689455,0.05509182,-0.004
 24041,-0.01709736,-0.00461059,-0.00363731,-0.00374611,-0.00074314,0.00
 160393,-0.00093264,0.00002721,0.00094407,0.00019532,0.00001776,0.00532
 973,-0.01767492,-0.03753344,-0.01387715,-0.00233696,-0.00140548,-0.000
 16373,-0.00160136,-0.01391439,0.00234543,0.00003244,-0.00278167,-0.002
 46963,0.02158079,0.05563498,-0.00446342,-0.01306024,-0.00100372,-0.000
 93322,-0.00052308,0.00067729,0.00022239,0.00330952,0.00112096,-0.00013
 451,-0.00389127,-0.00241019,0.00530876,0.01416508,0.00161566,0.1555535
 1,-0.02143680,-0.07397715,0.02724508,-0.03560526,-0.08609253,-0.138357
 57,0.00216006,-0.00066808,0.13717748,0.00065162,0.00339826,0.00099489,
 -0.00071239,-0.00549974,0.00275070,0.00086737,0.00316881,-0.00139450,0
 .00054874,-0.00569280,-0.01966853,0.01023565,-0.01031164,0.00164773,0.
 00057368,-0.00065055,0.01750816,0.01568080,0.00782277,-0.00600322,-0.0
 0168679,0.00138960,-0.00149139,-0.01438885,-0.00655322,-0.01660929,-0.
 00537499,0.01180381,0.00217811,-0.00161800,0.00162172,0.01462947,0.007
 83116,-0.01079277,0.00250602,-0.00894182,-0.02297008,-0.00010687,0.000
 09055,-0.00039150,0.00020009,0.00057745,0.00028135,-0.00236191,-0.0060
 5674,0.00731645,0.02239140,-0.00054671,0.00007199,0.00057551,0.0006606
 2,-0.00100792,-0.00034528,0.00698101,-0.00602737,-0.01722771,0.0244679
 1,0.06643226,-0.00069688,-0.00035938,0.00061102,-0.00300195,-0.0001127
 5,-0.00181613,0.02219111,-0.02361367,-0.06491061,-0.00003343,0.0179829
 1,0.00670471,-0.00036079,-0.00060346,-0.00031415,0.00031255,-0.0001826
 1,-0.00047964,-0.00023733,-0.00103817,-0.00126457,0.00031900,0.0111611
 3,0.05543967,0.01822219,0.00078582,0.00063989,-0.00050022,0.00291890,-
 0.00165124,-0.00049289,0.00129282,-0.00035315,-0.00038211,-0.01615867,
 -0.05407517,0.00384122,0.01564497,0.00468766,0.00058134,0.00043376,0.0
 0029126,-0.00066532,-0.00022379,-0.00081663,0.00088911,0.00099204,-0.0
 0031653,-0.00464636,-0.01684697,-0.00384576,0.00852332,-0.05930959,-0.
 13154153,-0.05242462,0.00231570,0.11518824,-0.00736205,0.00933254,0.00
 896751,0.00742386,0.00279245,0.00124682,0.00034997,-0.00495589,-0.0022
 5916,0.00273290,0.00006029,0.00047723,-0.00510235,-0.00004095,0.000090
 52,-0.00137158,-0.00380755,-0.00491571,0.00014075,-0.00021570,-0.00026
 646,0.00121752,-0.00150453,0.02635459,0.00178762,-0.00243995,0.0005580
 9,-0.00059764,0.00507706,-0.02619859,-0.00335502,-0.00589151,-0.024532
 71,-0.00204854,0.00037246,-0.00028351,0.00657878,0.00217684,0.02443305
 ,-0.01311794,0.01108242,0.03791227,0.00020083,0.00107979,0.00179115,0.
 00076741,-0.00050118,-0.00069299,0.01227336,0.01371104,-0.00344773,-0.
 02831430,-0.00110185,0.00043531,-0.00003691,-0.00103555,0.00120846,0.0
 0017644,-0.01188237,0.00139998,0.04077367,-0.02430971,-0.09552240,-0.0
 0079051,-0.00070805,0.00002037,-0.00033445,-0.00320536,0.00189498,-0.0
 3955017,0.02822782,0.09407675,0.01332826,0.04270217,0.01046055,-0.0004
 0338,0.00129936,0.00084476,-0.00075411,-0.00063139,-0.00048223,-0.0001
 2365,0.00030873,-0.00009854,-0.01204712,0.04431063,0.10738784,0.023861
 01,-0.00083484,0.00001895,0.00061522,-0.00001826,-0.00192256,0.0031657
 7,0.00022133,0.00040397,-0.00000470,-0.04367887,-0.10588821,0.01227308
 ,0.02782523,0.00438963,-0.00102611,0.00002657,-0.00030461,-0.00106216,
 -0.00016145,-0.00151182,0.00053974,-0.00005305,-0.00046970,-0.01072455
 ,-0.02763730,-0.00210349,0.01572618,0.12496715,-0.16127114,-0.13330414
 ,0.25697858,-0.19234130,-0.03799546,-0.00343633,0.00475138,0.02849880,
 -0.00061591,0.00129163,-0.00093169,0.00691649,-0.00065376,0.00189083,-
 0.00097992,0.00217739,-0.00855355,0.00161041,-0.00171622,0.03102253,-0
 .11318793,0.12012484,0.00923257,-0.00560998,0.00586703,-0.03482447,-0.
 11321952,0.19182468,-0.23307229,-0.00433075,-0.00115774,-0.00116903,0.
 11654051,-0.20015981,0.12008912,-0.23305829,0.22043451,0.00467904,-0.0
 0122506,-0.00086146,-0.12353201,0.23973852,-0.22980775,-0.00453708,0.0
 0435924,0.01178754,0.00013650,-0.00025537,0.00051700,-0.00277684,0.000
 71299,-0.00046427,0.00658401,0.00385006,-0.00305667,-0.01056809,0.0007
 6969,0.00035309,-0.00014348,0.00093790,-0.00307150,-0.00297185,-0.0053
 5103,0.00577951,0.01401606,-0.01385382,-0.02926707,-0.00010627,0.00066
 707,0.00007619,-0.00137856,-0.00150264,0.01281047,-0.01200376,0.014216
 77,0.01638832,-0.00421616,-0.01270213,-0.00335962,0.00012758,-0.000435
 23,0.00027868,-0.00265379,0.00029676,-0.00077188,0.00059341,-0.0002066
 2,-0.00052747,0.00614895,-0.01498178,-0.02878849,-0.01240651,0.0000809
 0,0.00016678,0.00068203,0.00131949,0.01256437,-0.00248332,0.00053417,-
 0.00000442,0.00047263,0.01304722,0.01606175,-0.00269188,-0.00908655,-0
 .00100352,-0.00077060,-0.00012072,0.00032410,-0.00108130,-0.00399456,-
 0.00257576,0.00016350,-0.00053334,-0.00000791,0.00438029,0.01373518,0.
 00326310,-0.00048490,0.00080897,-0.00153932,-0.00009293,-0.00039405,-0
 .00162685,0.00034216,-0.00014492,0.00015308,-0.00016198,0.00010477,-0.
 00003816,-0.00006684,-0.00073042,-0.00000102,0.00015843,-0.00007829,-0
 .00021256,-0.00085046,0.00035557,0.00050250,0.00006662,-0.00039104,0.0
 0026177,-0.00003225,0.00007966,0.00015995,0.00030811,-0.00043690,0.000
 58458,-0.00062724,0.00023072,-0.00012420,-0.00004167,0.00018574,-0.000
 12005,0.00041220,-0.00079090,0.00087727,0.00003608,-0.00002634,0.00006
 169,-0.00034448,0.00103249,-0.00184978,0.00000668,-0.00048655,-0.00041
 044,-0.00047541,0.00028085,0.00041097,-0.00034576,-0.00009439,-0.00010
 467,0.00067606,-0.00048779,0.00013246,0.00072631,0.00035445,0.00002987
 ,-0.00028082,-0.00009557,-0.00018581,-0.00020302,0.00008181,0.00047617
 ,-0.00055615,0.00085690,0.00097980,0.00057976,-0.00027721,-0.00021091,
 -0.00006690,-0.00020311,0.00086440,-0.00011378,0.00029411,-0.00128323,
 0.00006945,0.00021354,0.00008852,0.00032718,0.00026495,0.00012110,0.00
 000329,0.00011482,0.00000086,0.00013830,0.00014699,0.00015708,-0.00053
 885,0.00001095,0.00086043,0.00036182,0.00028998,0.00013350,0.00004524,
 0.00022120,-0.00015452,-0.00001223,0.00021817,-0.00045266,-0.00067070,
 -0.00074017,-0.00038758,0.00007845,0.00040634,-0.00001766,0.00008153,0
 .00001486,-0.00014064,-0.00001035,-0.00016047,0.00004643,0.00021793,-0
 .00053660,-0.00034998,-0.00036760,0.00027594,0.00046097,-0.00429602,-0
 .00157131,-0.00385810,-0.00089015,0.00024668,-0.00049749,0.00263937,0.
 00077812,0.00050537,-0.00205368,0.00065586,0.00080777,-0.00012846,0.00
 064955,-0.00067654,0.00042655,-0.00007586,-0.00020329,-0.00043992,0.00
 030835,0.00008981,0.00020535,-0.00039169,0.00049613,0.00037412,-0.0003
 5774,0.00009659,-0.00044985,-0.00035553,0.00076220,-0.00085273,-0.0003
 4655,0.00010250,-0.00017638,0.00087388,-0.00154819,0.00040014,-0.00067
 803,0.00064551,0.00006690,-0.00019230,-0.00017470,-0.00067475,0.000928
 72,0.00010518,0.00002368,-0.00000760,-0.00018643,-0.00012457,-0.000257
 22,0.00002969,0.00007163,-0.00001988,0.00008137,0.00008950,-0.00010341
 ,0.00011874,0.00027570,-0.00019551,0.00001476,0.00008650,0.00000997,0.
 00007104,-0.00000885,0.00048215,-0.00020678,-0.00005179,0.00003663,0.0
 0010628,0.00002031,0.00013973,0.00004074,-0.00003789,0.00018813,-0.000
 43132,0.00023641,-0.00029758,0.00034891,0.00142761,0.00119247,0.000075
 08,-0.00083560,-0.00069056,-0.00011294,-0.00020125,-0.00015191,0.00012
 634,-0.00006031,-0.00019325,-0.00016707,-0.00033083,0.00137439,0.00216
 940,0.00045881,-0.00088572,-0.00024866,-0.00014255,-0.00013443,0.00061
 246,-0.00004953,-0.00019749,0.00000224,-0.00006686,-0.00015665,-0.0025
 3599,0.00011525,0.00047057,-0.00005100,-0.00015268,-0.00012725,0.00024
 732,0.00011991,-0.00008774,-0.00014466,-0.00016107,-0.00005571,-0.0000
 6458,0.00007855,-0.00019981,0.00001235,-0.00291486,-0.00085103,-0.0019
 5531,0.00244465,-0.00364579,-0.00111372,0.00159303,0.00126655,-0.00020
 198,-0.00018671,0.00126535,0.00086162,0.00029024,-0.00069183,-0.000925
 88,-0.00023585,0.00029468,-0.00039948,-0.00044185,0.00009227,0.0003678
 0,0.00019176,0.00009353,-0.00008864,-0.00024184,-0.00027221,0.00027047
 ,0.00019653,0.00007965,-0.00001864,0.00021745,-0.00013269,0.00009688,-
 0.00009059,0.00024469,-0.00006360,-0.00009151,0.00022629,0.00001506,0.
 00013037,-0.00008672,0.00004702,-0.00027315,0.00041109,-0.00002057,0.0
 0083228,-0.00062389,-0.00211007,-0.00062723,0.00025692,0.00058753,-0.0
 0010312,0.00005899,0.00023419,-0.00023835,-0.00061302,0.00105192,0.002
 57950,0.00001085,0.00014720,-0.00010006,0.00008458,-0.00000969,-0.0003
 6071,0.00044867,-0.00075729,-0.00205566,0.00260498,0.00168310,0.000462
 35,-0.00023450,-0.00019744,0.00012074,-0.00023035,-0.00003432,0.001339
 56,-0.00150008,-0.00102886,0.00029780,0.00011485,-0.00004396,-0.000537
 98,-0.00055836,-0.00018033,-0.00004335,-0.00025065,0.00000010,0.000136
 61,0.00006895,0.00013303,0.00014610,0.00011906,0.00006041,0.00055860,-
 0.00045302,-0.00018034,-0.00019621,-0.00015058,-0.00000494,-0.00018994
 ,-0.00014065,-0.00043199,-0.00064008,0.00062523,0.00055601,-0.00006163
 ,0.00051984,-0.00018496,0.00005108,-0.00006121,0.00018166,-0.00002941,
 -0.00030760,-0.00000719,-0.00005119,-0.00061866,-0.00042235,0.00009105
 ,0.00046785,0.00043200,0.00498352,0.00384624,-0.00886371,-0.00667032,0
 .00848146,-0.00827515,-0.00554988,0.00011078,0.00226979,0.00763476,0.0
 0041860,0.00141995,-0.00048334,-0.00236578,-0.00059954,0.00184841,-0.0
 0048346,0.00142965,0.00016988,-0.00114141,-0.00035180,0.00023797,-0.00
 336403,0.00370318,-0.00238839,0.00202766,-0.00209470,0.00233900,-0.003
 60393,0.00670098,-0.00744752,0.00220964,-0.00060777,0.00160399,0.00060
 163,-0.00545642,0.00406692,-0.00741907,0.00733326,-0.00235226,0.001614
 78,-0.00089375,-0.00081936,0.00566911,-0.00536973,0.00020264,0.0000183
 7,0.00078414,0.00012163,-0.00000432,0.00005329,-0.00010768,0.00019634,
 -0.00071316,-0.00028256,0.00010687,0.00035612,-0.00035521,-0.00011298,
 -0.00000679,-0.00002023,0.00019744,0.00007313,0.00020117,-0.00018758,-
 0.00004518,0.00091847,-0.00055365,-0.00084126,-0.00019383,0.00002181,-
 0.00018662,-0.00062186,0.00004023,-0.00114194,-0.00012273,0.00070445,0
 .00250159,0.00012573,-0.00061136,-0.00008679,0.00018161,-0.00007634,0.
 00002315,-0.00008090,0.00059632,-0.00018213,0.00006567,-0.00000376,0.0
 0002000,-0.00029290,-0.00076777,0.00038667,-0.00019540,0.00015815,-0.0
 0020582,0.00004106,0.00053729,-0.00070991,-0.00006599,-0.00002282,-0.0
 0037757,-0.00021295,0.00009513,0.00090588,-0.00016347,-0.00002528,0.00
 035350,0.00010645,-0.00001189,0.00000263,-0.00016727,0.00013419,0.0000
 7217,-0.00000149,-0.00053029,-0.00033206,0.00022577,0.00043327,-0.0000
 9699,-0.00184309,0.00442188,-0.00597527,-0.00450473,0.01136197,-0.0045
 5701,-0.00009198,-0.00001004,0.00007111,-0.00013887,0.00019081,0.00013
 146,0.00006247,0.00020381,-0.00020975,-0.00014118,0.00006911,-0.000017
 44,-0.00035060,0.00018495,-0.00009368,0.00145538,-0.00393939,0.0040376
 9,0.00059244,-0.00041158,0.00043123,-0.00320212,-0.00371701,0.00551482
 ,-0.00736202,-0.00038704,-0.00006254,-0.00027586,0.00422233,-0.0022280
 4,0.00382155,-0.00754293,0.00663079,0.00043845,-0.00027084,-0.00000363
 ,-0.00443368,0.00402223,-0.00336495,0.00001846,0.00019032,0.00120069,-
 0.00020121,0.00000314,0.00004182,0.00054187,0.00009103,0.00026357,-0.0
 0032837,-0.00001439,0.00043011,-0.00167504,0.00014144,0.00004018,-0.00
 001879,0.00011237,-0.00026704,0.00161626,-0.00022203,-0.00040128,0.001
 43170,-0.00197684,-0.00264990,-0.00002546,0.00002583,0.00008147,0.0000
 6540,0.00190002,-0.00279414,-0.00153573,-0.00024958,0.00527967,0.00046
 124,-0.00066277,-0.00080476,-0.00016111,0.00001366,0.00001878,0.000612
 42,-0.00020932,-0.00008990,-0.00003071,-0.00001744,0.00006408,-0.00088
 278,-0.00088129,-0.00010112,-0.00238738,0.00005168,0.00010014,0.000040
 52,0.00001626,-0.00295720,0.00217528,-0.00006251,0.00019812,0.00030059
 ,0.00087581,0.00275920,-0.00060734,-0.00191131,0.00059356,-0.00013345,
 -0.00000248,0.00003284,-0.00010065,0.00171563,-0.00046806,0.00002965,0
 .00032718,0.00008302,0.00081177,-0.00012897,-0.00024217,0.00896230,0.0
 0063861,-0.00728029,-0.00751235,0.00952607,0.00166251,-0.00807036,-0.0
 0159922,0.00603202,0.01098610,-0.00110342,0.00248063,-0.00008729,0.000
 49526,-0.00261626,0.00548322,-0.00007576,0.00214573,-0.00483466,-0.000
 24530,-0.00222446,0.00054386,0.00037061,-0.00034178,-0.00259867,0.0009
 5011,-0.00103640,0.00138406,0.00037471,-0.00005964,0.00086480,0.000787
 92,0.00017130,0.00031966,-0.00080425,0.00264311,-0.00034984,0.00075845
 ,-0.00004146,-0.00082865,0.00032269,0.00003911,0.00084291,-0.00178167,
 0.00299729,-0.00167322,0.00211191,0.00432092,-0.00018010,0.00010394,0.
 00043350,0.00029810,0.00004609,0.00032232,0.00144842,0.00202902,-0.001
 48893,-0.00484950,0.00006521,0.00010968,-0.00007370,-0.00000062,0.0004
 0741,0.00036482,-0.00214446,0.00117576,0.00475357,-0.00538058,-0.00375
 557,-0.00031693,0.00005064,-0.00007508,0.00049053,0.00008272,-0.003270
 79,-0.00503717,0.00504584,0.00735186,0.00023742,-0.00152191,-0.0024988
 2,-0.00013724,-0.00044604,-0.00004566,0.00037263,-0.00040447,0.0000132
 7,0.00010707,0.00005075,0.00010994,-0.00058077,-0.00193891,0.00634823,
 -0.00545408,0.00025067,-0.00014539,0.00007514,-0.00051586,-0.00316219,
 0.00033570,-0.00011757,-0.00020351,0.00020151,0.00232175,-0.00283815,-
 0.00237460,-0.00482818,-0.00001123,-0.00005178,-0.00004070,0.00011473,
 0.00004475,0.00051448,0.00027583,-0.00003963,-0.00048733,-0.00024995,0
 .00242119,0.00484186,-0.00013041,0.04509595,-0.01137284,-0.04317540,-0
 .01880701,0.03314596,-0.02179487,-0.07702203,0.02092893,0.00898416,0.0
 8222569,0.02142086,0.01583382,0.00083065,-0.02041846,-0.01567428,0.009
 17263,0.00163521,0.01258399,-0.01129100,0.00014444,-0.01216568,0.00310
 517,-0.01427543,0.01662172,-0.00085580,-0.00061540,0.00078426,-0.00118
 531,-0.01616089,0.02206272,-0.02585530,0.00053516,0.00029884,-0.000554
 87,0.01514682,-0.02275752,0.01843165,-0.02554773,0.02531656,-0.0004237
 6,-0.00061876,0.00037811,-0.01734319,0.02722414,-0.02596244,0.01143440
 ,-0.00631056,-0.00542281,-0.00259500,-0.00066440,0.00105477,-0.0005557
 0,0.00068282,0.00016060,-0.00845498,-0.00872098,0.00180639,-0.00053184
 ,0.00198146,-0.00027043,-0.00115460,0.00035941,-0.00007812,-0.00013532
 ,0.00640969,-0.00194717,-0.00849151,-0.00129813,-0.01349349,0.00381048
 ,-0.00017174,-0.00074548,0.00041216,-0.00071787,0.00050621,0.00415024,
 0.00163640,0.01340055,0.01738650,0.01102989,-0.00137606,-0.00175309,0.
 00027726,0.00027937,-0.00050835,-0.00020391,-0.00082530,0.00017141,-0.
 00002961,0.00011862,-0.01529715,0.01483385,0.00347247,-0.00758946,-0.0
 0302724,-0.00018796,-0.00007025,-0.00061540,0.00047409,-0.00092233,-0.
 00011758,0.00048950,0.00055138,-0.01107370,-0.00424865,-0.00030576,-0.
 00793532,-0.00261219,-0.00107985,-0.00018465,-0.00005088,-0.00047495,-
 0.00009610,-0.00023842,0.00005718,0.00018540,0.00033240,0.00180328,0.0
 0803086,0.00256860,-0.02191802,0.03493594,-0.03029189,-0.01692989,0.02
 977559,-0.00389121,0.01986450,0.00637222,0.00079703,-0.01959045,0.0043
 5724,0.00283249,-0.00158517,-0.00406022,-0.00255311,0.00178984,-0.0013
 8180,-0.00094121,-0.00269861,0.00120946,0.00101987,0.00250132,-0.01245
 246,0.01286883,0.00017532,-0.00031716,0.00028705,-0.00307082,-0.010656
 92,0.02247417,-0.02946282,-0.00139567,-0.00014469,0.00044471,0.0129038
 0,-0.02183088,0.01056921,-0.03073423,0.02654910,0.00145081,0.00045610,
 -0.00010243,-0.01310229,0.03082193,-0.02594933,0.00350616,-0.00609706,
 0.01064279,-0.00027969,-0.00017347,0.00047659,0.00020474,-0.00024152,0
 .00063808,-0.00359134,-0.00438399,0.01927768,0.00067100,0.00035006,0.0
 0012206,-0.00044251,0.00015666,-0.00001647,-0.00047367,0.00490930,-0.0
 1720170,0.01361230,0.00428168,-0.03346640,0.00071738,0.00011430,-0.000
 15311,-0.00006251,-0.00048002,-0.00053066,-0.01274150,0.00059176,0.035
 86476,-0.00395395,-0.02275864,-0.00737878,-0.00017000,0.00019347,0.000
 14511,0.00018942,-0.00060970,0.00044419,0.00015974,-0.00103222,-0.0015
 2570,0.00377431,-0.02425227,-0.01429245,0.00060140,-0.00126652,-0.0002
 5687,0.00017019,-0.00029084,-0.00048215,-0.00007013,0.00160256,-0.0021
 8168,-0.00450764,0.02420710,0.01721264,-0.00904146,-0.00194124,0.01174
 973,-0.00026663,-0.00019464,0.00017684,0.00000892,-0.00132379,0.000033
 33,0.00098400,-0.00034650,-0.00171459,0.00831514,0.00380623,-0.0102458
 2,-0.00164103,-0.15829345,0.21120328,0.16101547,-0.31856483,0.25444785
 ,0.00753657,-0.00597837,0.00891640,-0.00399579,-0.00287259,0.00095087,
 0.00116480,0.00254932,-0.00236338,0.00561945,0.00114114,-0.00062641,-0
 .00525885,-0.00043382,-0.00092778,-0.00097536,0.15631519,-0.16535372,-
 0.00398955,0.00040011,-0.00048846,0.00287876,0.15639490,-0.22532995,0.
 32285741,0.00328418,0.00100786,-0.00049922,-0.15644776,0.22653958,-0.1
 6569635,0.32205611,-0.26130416,-0.00346825,-0.00052360,0.00103427,0.16
 567606,-0.32268064,0.26397659,-0.00398330,0.00398176,-0.00149868,0.000
 19087,0.00003081,0.00010085,0.00095005,-0.00124341,0.00202670,0.002668
 93,0.00335413,-0.00555784,-0.00026660,-0.00011625,0.00027106,-0.000116
 55,-0.00067016,0.00216062,-0.00109514,-0.00256556,0.00285569,0.0013517
 6,-0.00336538,0.01094981,-0.00031470,-0.00011785,0.00023679,-0.0005777
 2,0.00167041,-0.00553444,-0.00064818,0.00162773,-0.00584871,-0.0009368
 7,0.00397488,-0.00307947,0.00025737,-0.00010776,0.00002699,0.00113607,
 -0.00198792,0.00146185,0.00017330,-0.00000221,0.00018887,-0.00063012,0
 .00141703,0.01873365,-0.00519078,0.00026102,0.00013323,-0.00009150,0.0
 0040261,-0.00437811,0.00224328,-0.00020367,0.00027041,0.00018502,-0.00
 187688,-0.01475961,-0.00229033,-0.00126702,-0.00346709,0.00012538,-0.0
 0008947,0.00028283,0.00074384,-0.00134796,0.00182774,0.00001935,-0.000
 14952,0.00019651,0.00140176,0.00285397,0.00115954\\@
 The archive entry for this job was punched.


 LORD, MAN... WERE YE BUT WHYLES WHERE I AM, 
 THE GENTILES YE WAD NE'ER ENVY 'EM.        
 IT'S TRUE, THEY NEEDNA STARVE OR SWEAT,     
 THRO' WINTER'S CAULD OR SIMMER'S HEAT...  
 THEY'VE NAE SAIR WARK TO CRAZE THEIR BANES, 
 AND FILL AULD AGE WITH GRIPS AN' GRANES...  
                                             
 BUT HUMAN BODIES ARE SIC FOOLS              
 FOR A' THEIR COLLEGES AND SCHOOLS,           
 THAT WHEN NAE REAL ILLS PERPLEX THEM,       
 THEY MAK ENOW THEMSELVES TO VEX THEM,       
 AN' AYE THE LESS THEY HAE TO STURT THEM,    
 IN LIKE PROPORTION LESS WILL HURT THEM....  
                                             
                (ROBERT BURNS 'THE TWA DOGS')
 Job cpu time:       0 days  3 hours 24 minutes 11.8 seconds.
 Elapsed time:       0 days  3 hours 24 minutes 12.6 seconds.
 File lengths (MBytes):  RWF=     69 Int=      0 D2E=      0 Chk=     42 Scr=      1
 Normal termination of Gaussian 16 at Thu Jun 18 18:24:49 2020.
