 Entering Gaussian System, Link 0=g16
 Input=water.gjf
 Output=water.log
 Initial command:
 /apps/gaussian/g16c01/g16/l1.exe "/jobfs/7271862.gadi-pbs/Gau-55279.inp" -scrdir="/jobfs/7271862.gadi-pbs/"
 Entering Link 1 = /apps/gaussian/g16c01/g16/l1.exe PID=     55280.
  
 Copyright (c) 1988-2019, Gaussian, Inc.  All Rights Reserved.
  
 This is part of the Gaussian(R) 16 program.  It is based on
 the Gaussian(R) 09 system (copyright 2009, Gaussian, Inc.),
 the Gaussian(R) 03 system (copyright 2003, Gaussian, Inc.),
 the Gaussian(R) 98 system (copyright 1998, Gaussian, Inc.),
 the Gaussian(R) 94 system (copyright 1995, Gaussian, Inc.),
 the Gaussian 92(TM) system (copyright 1992, Gaussian, Inc.),
 the Gaussian 90(TM) system (copyright 1990, Gaussian, Inc.),
 the Gaussian 88(TM) system (copyright 1988, Gaussian, Inc.),
 the Gaussian 86(TM) system (copyright 1986, Carnegie Mellon
 University), and the Gaussian 82(TM) system (copyright 1983,
 Carnegie Mellon University). Gaussian is a federally registered
 trademark of Gaussian, Inc.
  
 This software contains proprietary and confidential information,
 including trade secrets, belonging to Gaussian, Inc.
  
 This software is provided under written license and may be
 used, copied, transmitted, or stored only in accord with that
 written license.
  
 The following legend is applicable only to US Government
 contracts under FAR:
  
                    RESTRICTED RIGHTS LEGEND
  
 Use, reproduction and disclosure by the US Government is
 subject to restrictions as set forth in subparagraphs (a)
 and (c) of the Commercial Computer Software - Restricted
 Rights clause in FAR 52.227-19.
  
 Gaussian, Inc.
 340 Quinnipiac St., Bldg. 40, Wallingford CT 06492
  
  
 ---------------------------------------------------------------
 Warning -- This program may not be used in any manner that
 competes with the business of Gaussian, Inc. or will provide
 assistance to any competitor of Gaussian, Inc.  The licensee
 of this program is prohibited from giving any competitor of
 Gaussian, Inc. access to this program.  By using this program,
 the user acknowledges that Gaussian, Inc. is engaged in the
 business of creating and licensing software in the field of
 computational chemistry and represents and warrants to the
 licensee that it is not a competitor of Gaussian, Inc. and that
 it will not use this program in any manner prohibited above.
 ---------------------------------------------------------------
  

 Cite this work as:
 Gaussian 16, Revision C.01,
 M. J. Frisch, G. W. Trucks, H. B. Schlegel, G. E. Scuseria, 
 M. A. Robb, J. R. Cheeseman, G. Scalmani, V. Barone, 
 G. A. Petersson, H. Nakatsuji, X. Li, M. Caricato, A. V. Marenich, 
 J. Bloino, B. G. Janesko, R. Gomperts, B. Mennucci, H. P. Hratchian, 
 J. V. Ortiz, A. F. Izmaylov, J. L. Sonnenberg, D. Williams-Young, 
 F. Ding, F. Lipparini, F. Egidi, J. Goings, B. Peng, A. Petrone, 
 T. Henderson, D. Ranasinghe, V. G. Zakrzewski, J. Gao, N. Rega, 
 G. Zheng, W. Liang, M. Hada, M. Ehara, K. Toyota, R. Fukuda, 
 J. Hasegawa, M. Ishida, T. Nakajima, Y. Honda, O. Kitao, H. Nakai, 
 T. Vreven, K. Throssell, J. A. Montgomery, Jr., J. E. Peralta, 
 F. Ogliaro, M. J. Bearpark, J. J. Heyd, E. N. Brothers, K. N. Kudin, 
 V. N. Staroverov, T. A. Keith, R. Kobayashi, J. Normand, 
 K. Raghavachari, A. P. Rendell, J. C. Burant, S. S. Iyengar, 
 J. Tomasi, M. Cossi, J. M. Millam, M. Klene, C. Adamo, R. Cammi, 
 J. W. Ochterski, R. L. Martin, K. Morokuma, O. Farkas, 
 J. B. Foresman, and D. J. Fox, Gaussian, Inc., Wallingford CT, 2019.
 
 ******************************************
 Gaussian 16:  ES64L-G16RevC.01  3-Jul-2019
                18-Jun-2020 
 ******************************************
 -------------------------------------------------------
 # M06/Def2TZVP Freq=(anharmonic,ReadAnharm) Opt=CalcAll
 -------------------------------------------------------
 1/10=4,18=20,19=15,26=3,38=1,80=1/1,3;
 2/9=110,12=2,17=6,18=5,40=1/2;
 3/5=44,7=101,11=2,25=1,30=1,71=2,74=-54,140=1/1,2,3;
 4//1;
 5/5=2,38=5/2;
 8/6=4,10=90,11=11/1;
 11/6=1,8=1,9=11,15=111,16=1/1,2,10;
 10/6=1/2;
 6/7=2,8=2,9=2,10=2,18=1,28=1/1;
 7/10=1,25=1/1,2,3,16;
 1/10=4,18=20,19=15,26=3,80=1/3(3);
 2/9=110/2;
 7/8=1,9=1,25=1,44=-1,71=2,72=1/16;
 99//99;
 2/9=110/2;
 3/5=44,7=101,11=2,25=1,30=1,71=2,74=-54,140=1/1,2,3;
 4/5=5,16=3,69=1/1;
 5/5=2,38=5/2;
 8/6=4,10=90,11=11/1;
 11/6=1,8=1,9=11,15=111,16=1/1,2,10;
 10/6=1/2;
 7/10=1,25=1/1,2,3,16;
 1/10=4,18=20,19=15,26=3,80=1/3(-8);
 2/9=110/2;
 6/7=2,8=2,9=2,10=2,18=1,19=2,28=1/1;
 7/8=1,9=1,25=1,44=-1,71=1,72=1/16;
 99//99;
 -----------------------------------------
 Anharmonic frequencies for H2O using VPT2
 -----------------------------------------
 Symbolic Z-matrix:
 Charge =  0 Multiplicity = 1
 O                    -0.23995   1.15171  -0.00379 
 H                     0.72794   1.1973    0.00502 
 H                    -0.5188    2.06288   0.17219 
 

 GradGradGradGradGradGradGradGradGradGradGradGradGradGradGradGradGradGrad
 Berny optimization.
 Initialization pass.
                           ----------------------------
                           !    Initial Parameters    !
                           ! (Angstroms and Degrees)  !
 --------------------------                            --------------------------
 ! Name  Definition              Value          Derivative Info.                !
 --------------------------------------------------------------------------------
 ! R1    R(1,2)                  0.969          calculate D2E/DX2 analytically  !
 ! R2    R(1,3)                  0.969          calculate D2E/DX2 analytically  !
 ! A1    A(2,1,3)              103.978          calculate D2E/DX2 analytically  !
 --------------------------------------------------------------------------------
 Trust Radius=3.00D-01 FncErr=1.00D-07 GrdErr=1.00D-06 EigMax=2.50D+02 EigMin=1.00D-04
 Number of steps in this run=     20 maximum allowed number of steps=    100.
 GradGradGradGradGradGradGradGradGradGradGradGradGradGradGradGradGradGrad

                          Input orientation:                          
 ---------------------------------------------------------------------
 Center     Atomic      Atomic             Coordinates (Angstroms)
 Number     Number       Type             X           Y           Z
 ---------------------------------------------------------------------
      1          8           0       -0.239950    1.151710   -0.003790
      2          1           0        0.727940    1.197300    0.005020
      3          1           0       -0.518800    2.062880    0.172190
 ---------------------------------------------------------------------
                    Distance matrix (angstroms):
                    1          2          3
     1  O    0.000000
     2  H    0.969003   0.000000
     3  H    0.968998   1.526937   0.000000
 Stoichiometry    H2O
 Framework group  CS[SG(H2O)]
 Deg. of freedom     3
 Full point group                 CS      NOp   2
 Largest Abelian subgroup         CS      NOp   2
 Largest concise Abelian subgroup C1      NOp   1
                         Standard orientation:                         
 ---------------------------------------------------------------------
 Center     Atomic      Atomic             Coordinates (Angstroms)
 Number     Number       Type             X           Y           Z
 ---------------------------------------------------------------------
      1          8           0        0.000000    0.119345   -0.000000
      2          1           0        0.763468   -0.477383   -0.000000
      3          1           0       -0.763468   -0.477374    0.000000
 ---------------------------------------------------------------------
 Rotational constants (GHZ):         792.8699671         430.1501520         278.8614280
 Standard basis: def2TZVP (5D, 7F)
 There are    35 symmetry adapted cartesian basis functions of A'  symmetry.
 There are    13 symmetry adapted cartesian basis functions of A"  symmetry.
 There are    31 symmetry adapted basis functions of A'  symmetry.
 There are    12 symmetry adapted basis functions of A"  symmetry.
    43 basis functions,    67 primitive gaussians,    48 cartesian basis functions
     5 alpha electrons        5 beta electrons
       nuclear repulsion energy         9.0842605276 Hartrees.
 NAtoms=    3 NActive=    3 NUniq=    3 SFac= 1.00D+00 NAtFMM=   60 NAOKFM=F Big=F
 Integral buffers will be    131072 words long.
 Raffenetti 2 integral format.
 Two-electron integral symmetry is turned on.
 One-electron integrals computed using PRISM.
   2 Symmetry operations used in ECPInt.
 ECPInt:  NShTT=     190 NPrTT=     556 LenC2=     191 LenP2D=     543.
 LDataN:  DoStor=T MaxTD1= 6 Len=  172
 NBasis=    43 RedAO= T EigKep=  8.73D-03  NBF=    31    12
 NBsUse=    43 1.00D-06 EigRej= -1.00D+00 NBFU=    31    12
 ExpMin= 1.03D-01 ExpMax= 2.70D+04 ExpMxC= 9.22D+02 IAcc=3 IRadAn=         5 AccDes= 0.00D+00
 Harris functional with IExCor= 1009 and IRadAn=       5 diagonalized for initial guess.
 HarFok:  IExCor= 1009 AccDes= 0.00D+00 IRadAn=         5 IDoV= 1 UseB2=F ITyADJ=14
 ICtDFT=  3500011 ScaDFX=  1.000000  1.000000  1.000000  1.000000
 FoFCou: FMM=F IPFlag=           0 FMFlag=      100000 FMFlg1=           0
         NFxFlg=           0 DoJE=T BraDBF=F KetDBF=T FulRan=T
         wScrn=  0.000000 ICntrl=       500 IOpCl=  0 I1Cent=   200000004 NGrid=           0
         NMat0=    1 NMatS0=      1 NMatT0=    0 NMatD0=    1 NMtDS0=    0 NMtDT0=    0
 Petite list used in FoFCou.
 Initial guess orbital symmetries:
       Occupied  (A') (A') (A') (A') (A")
       Virtual   (A') (A') (A') (A') (A") (A') (A') (A') (A') (A")
                 (A") (A') (A') (A') (A') (A") (A") (A') (A') (A')
                 (A") (A') (A') (A') (A') (A") (A') (A") (A") (A')
                 (A') (A') (A") (A") (A') (A') (A') (A')
 The electronic state of the initial guess is 1-A'.
 Keep R1 ints in memory in symmetry-blocked form, NReq=2405575.
 Requested convergence on RMS density matrix=1.00D-08 within 128 cycles.
 Requested convergence on MAX density matrix=1.00D-06.
 Requested convergence on             energy=1.00D-06.
 No special actions if energy rises.
 Integral accuracy reduced to 1.0D-05 until final iterations.
 Initial convergence to 1.0D-05 achieved.  Increase integral accuracy.
 SCF Done:  E(RM06) =  -76.4218492425     A.U. after   10 cycles
            NFock= 10  Conv=0.31D-08     -V/T= 2.0033
 DoSCS=F DFT=T ScalE2(SS,OS)=  1.000000  1.000000
 Range of M.O.s used for correlation:     1    43
 NBasis=    43 NAE=     5 NBE=     5 NFC=     0 NFV=     0
 NROrb=     43 NOA=     5 NOB=     5 NVA=    38 NVB=    38
   2 Symmetry operations used in ECPInt.
 ECPInt:  NShTT=     190 NPrTT=     556 LenC2=     191 LenP2D=     543.
 LDataN:  DoStor=T MaxTD1= 7 Len=  274
 Symmetrizing basis deriv contribution to polar:
 IMax=3 JMax=2 DiffMx= 0.00D+00
 G2DrvN: will do     4 centers at a time, making    1 passes.
 Calling FoFCou, ICntrl=  3107 FMM=F I1Cent=   0 AccDes= 0.00D+00.
 End of G2Drv F.D. properties file   721 does not exist.
 End of G2Drv F.D. properties file   722 does not exist.
 End of G2Drv F.D. properties file   788 does not exist.
          IDoAtm=111
          Differentiating once with respect to electric field.
                with respect to dipole field.
          Differentiating once with respect to nuclear coordinates.
 Keep R1 ints in memory in symmetry-blocked form, NReq=2407016.
          There are    12 degrees of freedom in the 1st order CPHF.  IDoFFX=6 NUNeed=     3.
      9 vectors produced by pass  0 Test12= 1.58D-15 8.33D-09 XBig12= 3.45D+00 1.23D+00.
 AX will form     9 AO Fock derivatives at one time.
      9 vectors produced by pass  1 Test12= 1.58D-15 8.33D-09 XBig12= 4.38D-01 2.82D-01.
      9 vectors produced by pass  2 Test12= 1.58D-15 8.33D-09 XBig12= 6.26D-03 2.72D-02.
      9 vectors produced by pass  3 Test12= 1.58D-15 8.33D-09 XBig12= 2.73D-05 2.68D-03.
      9 vectors produced by pass  4 Test12= 1.58D-15 8.33D-09 XBig12= 9.64D-08 1.21D-04.
      6 vectors produced by pass  5 Test12= 1.58D-15 8.33D-09 XBig12= 1.52D-10 3.98D-06.
      3 vectors produced by pass  6 Test12= 1.58D-15 8.33D-09 XBig12= 1.02D-13 1.46D-07.
 InvSVY:  IOpt=1 It=  1 EMax= 4.44D-16
 Solved reduced A of dimension    54 with     9 vectors.
 Isotropic polarizability for W=    0.000000        6.73 Bohr**3.
 End of Minotr F.D. properties file   721 does not exist.
 End of Minotr F.D. properties file   722 does not exist.
 End of Minotr F.D. properties file   788 does not exist.

 **********************************************************************

            Population analysis using the SCF Density.

 **********************************************************************

 Orbital symmetries:
       Occupied  (A') (A') (A') (A') (A")
       Virtual   (A') (A') (A') (A') (A") (A') (A') (A') (A') (A")
                 (A") (A') (A') (A') (A') (A") (A") (A') (A') (A')
                 (A') (A") (A') (A') (A') (A") (A') (A") (A") (A')
                 (A') (A') (A") (A") (A') (A') (A') (A')
 The electronic state is 1-A'.
 Alpha  occ. eigenvalues --  -19.20459  -1.03179  -0.53771  -0.40244  -0.32629
 Alpha virt. eigenvalues --    0.02007   0.07708   0.35234   0.39994   0.44129
 Alpha virt. eigenvalues --    0.44164   0.55662   0.57575   1.17004   1.20155
 Alpha virt. eigenvalues --    1.30963   1.51799   1.64230   1.74051   1.97102
 Alpha virt. eigenvalues --    2.05873   2.09262   2.26652   2.36568   2.56909
 Alpha virt. eigenvalues --    2.58398   2.66245   2.81666   3.63170   3.89422
 Alpha virt. eigenvalues --    5.11842   5.21768   5.38528   5.40834   5.44507
 Alpha virt. eigenvalues --    6.01868   6.23704   6.37348   6.42198   6.48699
 Alpha virt. eigenvalues --    6.87896   6.98987  43.23302
          Condensed to atoms (all electrons):
               1          2          3
     1  O    8.062069   0.295103   0.295104
     2  H    0.295103   0.399470  -0.020712
     3  H    0.295104  -0.020712   0.399470
 Mulliken charges:
               1
     1  O   -0.652276
     2  H    0.326139
     3  H    0.326138
 Sum of Mulliken charges =  -0.00000
 Mulliken charges with hydrogens summed into heavy atoms:
               1
     1  O   -0.000000
 APT charges:
               1
     1  O   -0.537769
     2  H    0.268885
     3  H    0.268885
 Sum of APT charges =  -0.00000
 APT charges with hydrogens summed into heavy atoms:
               1
     1  O   -0.000000
 Electronic spatial extent (au):  <R**2>=             19.5597
 Charge=             -0.0000 electrons
 Dipole moment (field-independent basis, Debye):
    X=             -0.0000    Y=             -2.0974    Z=             -0.0000  Tot=              2.0974
 Quadrupole moment (field-independent basis, Debye-Ang):
   XX=             -4.2756   YY=             -6.1948   ZZ=             -7.5021
   XY=             -0.0000   XZ=              0.0000   YZ=             -0.0000
 Traceless Quadrupole moment (field-independent basis, Debye-Ang):
   XX=              1.7152   YY=             -0.2040   ZZ=             -1.5113
   XY=             -0.0000   XZ=              0.0000   YZ=             -0.0000
 Octapole moment (field-independent basis, Debye-Ang**2):
  XXX=             -0.0000  YYY=             -1.3790  ZZZ=             -0.0000  XYY=              0.0000
  XXY=             -1.3720  XXZ=             -0.0000  XZZ=             -0.0000  YZZ=             -0.3675
  YYZ=             -0.0000  XYZ=              0.0000
 Hexadecapole moment (field-independent basis, Debye-Ang**3):
 XXXX=             -6.0907 YYYY=             -7.0701 ZZZZ=             -6.3598 XXXY=              0.0000
 XXXZ=              0.0000 YYYX=              0.0000 YYYZ=             -0.0000 ZZZX=              0.0000
 ZZZY=             -0.0000 XXYY=             -1.8472 XXZZ=             -2.3628 YYZZ=             -2.2938
 XXYZ=             -0.0000 YYXZ=              0.0000 ZZXY=              0.0000
 N-N= 9.084260527624D+00 E-N=-1.991662534532D+02  KE= 7.616835745890D+01
 Symmetry A'   KE= 7.160670401179D+01
 Symmetry A"   KE= 4.561653447116D+00
  Exact polarizability:       8.253      -0.000       6.701       0.000      -0.000       5.228
 Approx polarizability:       9.817      -0.000       7.861      -0.000       0.000       5.478
   2 Symmetry operations used in ECPInt.
 ECPInt:  NShTT=     190 NPrTT=     556 LenC2=     191 LenP2D=     543.
 LDataN:  DoStor=T MaxTD1= 8 Len=  415
 Calling FoFJK, ICntrl=    100127 FMM=F ISym2X=1 I1Cent= 0 IOpClX= 0 NMat=1 NMatS=1 NMatT=0.
 ***** Axes restored to original set *****
 -------------------------------------------------------------------
 Center     Atomic                   Forces (Hartrees/Bohr)
 Number     Number              X              Y              Z
 -------------------------------------------------------------------
      1        8           0.007950205    0.011032410    0.002130816
      2        1          -0.009753114   -0.001506549   -0.000291020
      3        1           0.001802908   -0.009525861   -0.001839795
 -------------------------------------------------------------------
 Cartesian Forces:  Max     0.011032410 RMS     0.006534653
 FormGI is forming the generalized inverse of G from B-inverse, IUseBI=4.

 GradGradGradGradGradGradGradGradGradGradGradGradGradGradGradGradGradGrad
 Berny optimization.
 Internal  Forces:  Max     0.009815436 RMS     0.008090952
 Search for a local minimum.
 Step number   1 out of a maximum of   20
 All quantities printed in internal units (Hartrees-Bohrs-Radians)
 Mixed Optimization -- RFO/linear search
 Second derivative matrix not updated -- analytic derivatives used.
 The second derivative matrix:
                          R1        R2        A1
           R1           0.51338
           R2          -0.00734   0.51340
           A1           0.03000   0.03000   0.15348
 ITU=  0
     Eigenvalues ---    0.14844   0.51108   0.52073
 RFO step:  Lambda=-4.44690809D-04 EMin= 1.48442509D-01
 Linear search not attempted -- first point.
 Iteration  1 RMS(Cart)=  0.01353334 RMS(Int)=  0.00015724
 Iteration  2 RMS(Cart)=  0.00017745 RMS(Int)=  0.00000001
 Iteration  3 RMS(Cart)=  0.00000001 RMS(Int)=  0.00000000
 ClnCor:  largest displacement from symmetrization is 1.02D-15 for atom     2.
 Variable       Old X    -DE/DX   Delta X   Delta X   Delta X     New X
                                 (Linear)    (Quad)   (Total)
    R1        1.83115  -0.00982   0.00000  -0.02061  -0.02061   1.81054
    R2        1.83114  -0.00981   0.00000  -0.02060  -0.02060   1.81055
    A1        1.81476   0.00195   0.00000   0.02070   0.02070   1.83546
         Item               Value     Threshold  Converged?
 Maximum Force            0.009815     0.000450     NO 
 RMS     Force            0.008091     0.000300     NO 
 Maximum Displacement     0.014702     0.001800     NO 
 RMS     Displacement     0.013541     0.001200     NO 
 Predicted change in Energy=-2.226298D-04
 GradGradGradGradGradGradGradGradGradGradGradGradGradGradGradGradGradGrad

                          Input orientation:                          
 ---------------------------------------------------------------------
 Center     Atomic      Atomic             Coordinates (Angstroms)
 Number     Number       Type             X           Y           Z
 ---------------------------------------------------------------------
      1          8           0       -0.234344    1.159490   -0.002287
      2          1           0        0.723078    1.194839    0.004545
      3          1           0       -0.519543    2.057561    0.171163
 ---------------------------------------------------------------------
                    Distance matrix (angstroms):
                    1          2          3
     1  O    0.000000
     2  H    0.958099   0.000000
     3  H    0.958099   1.521893   0.000000
 Stoichiometry    H2O
 Framework group  CS[SG(H2O)]
 Deg. of freedom     3
 Full point group                 CS      NOp   2
 Largest Abelian subgroup         CS      NOp   2
 Largest concise Abelian subgroup C1      NOp   1
                         Standard orientation:                         
 ---------------------------------------------------------------------
 Center     Atomic      Atomic             Coordinates (Angstroms)
 Number     Number       Type             X           Y           Z
 ---------------------------------------------------------------------
      1          8           0        0.000000    0.116433    0.000000
      2          1           0        0.760946   -0.465731   -0.000000
      3          1           0       -0.760946   -0.465731    0.000000
 ---------------------------------------------------------------------
 Rotational constants (GHZ):         833.0237559         433.0059104         284.9097611
 Standard basis: def2TZVP (5D, 7F)
 There are    35 symmetry adapted cartesian basis functions of A'  symmetry.
 There are    13 symmetry adapted cartesian basis functions of A"  symmetry.
 There are    31 symmetry adapted basis functions of A'  symmetry.
 There are    12 symmetry adapted basis functions of A"  symmetry.
    43 basis functions,    67 primitive gaussians,    48 cartesian basis functions
     5 alpha electrons        5 beta electrons
       nuclear repulsion energy         9.1848278947 Hartrees.
 NAtoms=    3 NActive=    3 NUniq=    3 SFac= 1.00D+00 NAtFMM=   60 NAOKFM=F Big=F
 Integral buffers will be    131072 words long.
 Raffenetti 2 integral format.
 Two-electron integral symmetry is turned on.
 One-electron integrals computed using PRISM.
   2 Symmetry operations used in ECPInt.
 ECPInt:  NShTT=     190 NPrTT=     556 LenC2=     191 LenP2D=     543.
 LDataN:  DoStor=T MaxTD1= 6 Len=  172
 NBasis=    43 RedAO= T EigKep=  8.34D-03  NBF=    31    12
 NBsUse=    43 1.00D-06 EigRej= -1.00D+00 NBFU=    31    12
 Initial guess from the checkpoint file:  "/jobfs/7271862.gadi-pbs/Gau-55280.chk"
 B after Tr=     0.000000    0.000000    0.000000
         Rot=    1.000000   -0.000000    0.000000   -0.000002 Ang=  -0.00 deg.
 Initial guess orbital symmetries:
       Occupied  (A') (A') (A') (A') (A")
       Virtual   (A') (A') (A') (A') (A") (A') (A') (A') (A') (A")
                 (A") (A') (A') (A') (A') (A") (A") (A') (A') (A')
                 (A') (A") (A') (A') (A') (A") (A') (A") (A") (A')
                 (A') (A') (A") (A") (A') (A') (A') (A')
 Keep R1 ints in memory in symmetry-blocked form, NReq=2405575.
 Requested convergence on RMS density matrix=1.00D-08 within 128 cycles.
 Requested convergence on MAX density matrix=1.00D-06.
 Requested convergence on             energy=1.00D-06.
 No special actions if energy rises.
 SCF Done:  E(RM06) =  -76.4220667900     A.U. after    7 cycles
            NFock=  7  Conv=0.57D-08     -V/T= 2.0028
 DoSCS=F DFT=T ScalE2(SS,OS)=  1.000000  1.000000
 Range of M.O.s used for correlation:     1    43
 NBasis=    43 NAE=     5 NBE=     5 NFC=     0 NFV=     0
 NROrb=     43 NOA=     5 NOB=     5 NVA=    38 NVB=    38
   2 Symmetry operations used in ECPInt.
 ECPInt:  NShTT=     190 NPrTT=     556 LenC2=     191 LenP2D=     543.
 LDataN:  DoStor=T MaxTD1= 7 Len=  274
 Symmetrizing basis deriv contribution to polar:
 IMax=3 JMax=2 DiffMx= 0.00D+00
 G2DrvN: will do     4 centers at a time, making    1 passes.
 Calling FoFCou, ICntrl=  3107 FMM=F I1Cent=   0 AccDes= 0.00D+00.
 End of G2Drv F.D. properties file   721 does not exist.
 End of G2Drv F.D. properties file   722 does not exist.
 End of G2Drv F.D. properties file   788 does not exist.
          IDoAtm=111
          Differentiating once with respect to electric field.
                with respect to dipole field.
          Differentiating once with respect to nuclear coordinates.
 Keep R1 ints in memory in symmetry-blocked form, NReq=2407044.
          There are    12 degrees of freedom in the 1st order CPHF.  IDoFFX=6 NUNeed=     3.
      9 vectors produced by pass  0 Test12= 1.58D-15 8.33D-09 XBig12= 3.31D+00 1.20D+00.
 AX will form     9 AO Fock derivatives at one time.
      9 vectors produced by pass  1 Test12= 1.58D-15 8.33D-09 XBig12= 3.93D-01 2.63D-01.
      9 vectors produced by pass  2 Test12= 1.58D-15 8.33D-09 XBig12= 5.65D-03 2.57D-02.
      9 vectors produced by pass  3 Test12= 1.58D-15 8.33D-09 XBig12= 2.45D-05 2.59D-03.
      9 vectors produced by pass  4 Test12= 1.58D-15 8.33D-09 XBig12= 8.80D-08 1.22D-04.
      6 vectors produced by pass  5 Test12= 1.58D-15 8.33D-09 XBig12= 1.55D-10 4.86D-06.
      3 vectors produced by pass  6 Test12= 1.58D-15 8.33D-09 XBig12= 1.26D-13 1.58D-07.
 InvSVY:  IOpt=1 It=  1 EMax= 6.66D-16
 Solved reduced A of dimension    54 with     9 vectors.
 Isotropic polarizability for W=    0.000000        6.61 Bohr**3.
 End of Minotr F.D. properties file   721 does not exist.
 End of Minotr F.D. properties file   722 does not exist.
 End of Minotr F.D. properties file   788 does not exist.
   2 Symmetry operations used in ECPInt.
 ECPInt:  NShTT=     190 NPrTT=     556 LenC2=     191 LenP2D=     543.
 LDataN:  DoStor=T MaxTD1= 8 Len=  415
 Calling FoFJK, ICntrl=    100127 FMM=F ISym2X=1 I1Cent= 0 IOpClX= 0 NMat=1 NMatS=1 NMatT=0.
 ***** Axes restored to original set *****
 -------------------------------------------------------------------
 Center     Atomic                   Forces (Hartrees/Bohr)
 Number     Number              X              Y              Z
 -------------------------------------------------------------------
      1        8          -0.000247010   -0.000342448   -0.000066141
      2        1           0.000377735   -0.000005136   -0.000000990
      3        1          -0.000130725    0.000347585    0.000067131
 -------------------------------------------------------------------
 Cartesian Forces:  Max     0.000377735 RMS     0.000227982
 FormGI is forming the generalized inverse of G from B-inverse, IUseBI=4.

 GradGradGradGradGradGradGradGradGradGradGradGradGradGradGradGradGradGrad
 Berny optimization.
 Using GEDIIS/GDIIS optimizer.
 Internal  Forces:  Max     0.000377272 RMS     0.000308547
 Search for a local minimum.
 Step number   2 out of a maximum of   20
 All quantities printed in internal units (Hartrees-Bohrs-Radians)
 Mixed Optimization -- En-DIIS/RFO-DIIS
 Second derivative matrix not updated -- analytic derivatives used.
 DE= -2.18D-04 DEPred=-2.23D-04 R= 9.77D-01
 TightC=F SS=  1.41D+00  RLast= 3.57D-02 DXNew= 5.0454D-01 1.0722D-01
 Trust test= 9.77D-01 RLast= 3.57D-02 DXMaxT set to 3.00D-01
 The second derivative matrix:
                          R1        R2        A1
           R1           0.55247
           R2          -0.00793   0.55247
           A1           0.03033   0.03033   0.15151
 ITU=  1  0
 Use linear search instead of GDIIS.
     Eigenvalues ---    0.14689   0.54917   0.56040
 RFO step:  Lambda=-7.31934392D-08 EMin= 1.46888402D-01
 Quintic linear search produced a step of -0.03118.
 Iteration  1 RMS(Cart)=  0.00049912 RMS(Int)=  0.00000000
 Iteration  2 RMS(Cart)=  0.00000000 RMS(Int)=  0.00000000
 ClnCor:  largest displacement from symmetrization is 1.12D-15 for atom     3.
 Variable       Old X    -DE/DX   Delta X   Delta X   Delta X     New X
                                 (Linear)    (Quad)   (Total)
    R1        1.81054   0.00038   0.00064   0.00006   0.00070   1.81125
    R2        1.81055   0.00038   0.00064   0.00006   0.00070   1.81125
    A1        1.83546   0.00004  -0.00065   0.00065   0.00001   1.83547
         Item               Value     Threshold  Converged?
 Maximum Force            0.000377     0.000450     YES
 RMS     Force            0.000309     0.000300     NO 
 Maximum Displacement     0.000539     0.001800     YES
 RMS     Displacement     0.000499     0.001200     YES
 Predicted change in Energy=-2.610014D-07
 GradGradGradGradGradGradGradGradGradGradGradGradGradGradGradGradGradGrad

                          Input orientation:                          
 ---------------------------------------------------------------------
 Center     Atomic      Atomic             Coordinates (Angstroms)
 Number     Number       Type             X           Y           Z
 ---------------------------------------------------------------------
      1          8           0       -0.234430    1.159372   -0.002310
      2          1           0        0.723363    1.194730    0.004524
      3          1           0       -0.519743    2.057789    0.171207
 ---------------------------------------------------------------------
                    Distance matrix (angstroms):
                    1          2          3
     1  O    0.000000
     2  H    0.958470   0.000000
     3  H    0.958470   1.522487   0.000000
 Stoichiometry    H2O
 Framework group  CS[SG(H2O)]
 Deg. of freedom     3
 Full point group                 CS      NOp   2
 Largest Abelian subgroup         CS      NOp   2
 Largest concise Abelian subgroup C1      NOp   1
                         Standard orientation:                         
 ---------------------------------------------------------------------
 Center     Atomic      Atomic             Coordinates (Angstroms)
 Number     Number       Type             X           Y           Z
 ---------------------------------------------------------------------
      1          8           0        0.000000    0.116477   -0.000000
      2          1           0        0.761244   -0.465908    0.000000
      3          1           0       -0.761244   -0.465908    0.000000
 ---------------------------------------------------------------------
 Rotational constants (GHZ):         832.3888364         432.6680854         284.6892325
 Standard basis: def2TZVP (5D, 7F)
 There are    35 symmetry adapted cartesian basis functions of A'  symmetry.
 There are    13 symmetry adapted cartesian basis functions of A"  symmetry.
 There are    31 symmetry adapted basis functions of A'  symmetry.
 There are    12 symmetry adapted basis functions of A"  symmetry.
    43 basis functions,    67 primitive gaussians,    48 cartesian basis functions
     5 alpha electrons        5 beta electrons
       nuclear repulsion energy         9.1812736342 Hartrees.
 NAtoms=    3 NActive=    3 NUniq=    3 SFac= 1.00D+00 NAtFMM=   60 NAOKFM=F Big=F
 Integral buffers will be    131072 words long.
 Raffenetti 2 integral format.
 Two-electron integral symmetry is turned on.
 One-electron integrals computed using PRISM.
   2 Symmetry operations used in ECPInt.
 ECPInt:  NShTT=     190 NPrTT=     556 LenC2=     191 LenP2D=     543.
 LDataN:  DoStor=T MaxTD1= 6 Len=  172
 NBasis=    43 RedAO= T EigKep=  8.35D-03  NBF=    31    12
 NBsUse=    43 1.00D-06 EigRej= -1.00D+00 NBFU=    31    12
 Initial guess from the checkpoint file:  "/jobfs/7271862.gadi-pbs/Gau-55280.chk"
 B after Tr=    -0.000000   -0.000000    0.000000
         Rot=    1.000000    0.000000    0.000000    0.000000 Ang=   0.00 deg.
 Initial guess orbital symmetries:
       Occupied  (A') (A') (A') (A') (A")
       Virtual   (A') (A') (A') (A') (A") (A') (A') (A') (A') (A")
                 (A") (A') (A') (A') (A') (A") (A") (A') (A') (A')
                 (A') (A") (A') (A') (A') (A") (A') (A") (A") (A')
                 (A') (A') (A") (A") (A') (A') (A') (A')
 Keep R1 ints in memory in symmetry-blocked form, NReq=2405575.
 Requested convergence on RMS density matrix=1.00D-08 within 128 cycles.
 Requested convergence on MAX density matrix=1.00D-06.
 Requested convergence on             energy=1.00D-06.
 No special actions if energy rises.
 SCF Done:  E(RM06) =  -76.4220670513     A.U. after    6 cycles
            NFock=  6  Conv=0.43D-08     -V/T= 2.0028
 DoSCS=F DFT=T ScalE2(SS,OS)=  1.000000  1.000000
 Range of M.O.s used for correlation:     1    43
 NBasis=    43 NAE=     5 NBE=     5 NFC=     0 NFV=     0
 NROrb=     43 NOA=     5 NOB=     5 NVA=    38 NVB=    38
   2 Symmetry operations used in ECPInt.
 ECPInt:  NShTT=     190 NPrTT=     556 LenC2=     191 LenP2D=     543.
 LDataN:  DoStor=T MaxTD1= 7 Len=  274
 Symmetrizing basis deriv contribution to polar:
 IMax=3 JMax=2 DiffMx= 0.00D+00
 G2DrvN: will do     4 centers at a time, making    1 passes.
 Calling FoFCou, ICntrl=  3107 FMM=F I1Cent=   0 AccDes= 0.00D+00.
 End of G2Drv F.D. properties file   721 does not exist.
 End of G2Drv F.D. properties file   722 does not exist.
 End of G2Drv F.D. properties file   788 does not exist.
          IDoAtm=111
          Differentiating once with respect to electric field.
                with respect to dipole field.
          Differentiating once with respect to nuclear coordinates.
 Keep R1 ints in memory in symmetry-blocked form, NReq=2407044.
          There are    12 degrees of freedom in the 1st order CPHF.  IDoFFX=6 NUNeed=     3.
      9 vectors produced by pass  0 Test12= 1.58D-15 8.33D-09 XBig12= 3.32D+00 1.20D+00.
 AX will form     9 AO Fock derivatives at one time.
      9 vectors produced by pass  1 Test12= 1.58D-15 8.33D-09 XBig12= 3.94D-01 2.64D-01.
      9 vectors produced by pass  2 Test12= 1.58D-15 8.33D-09 XBig12= 5.66D-03 2.58D-02.
      9 vectors produced by pass  3 Test12= 1.58D-15 8.33D-09 XBig12= 2.46D-05 2.59D-03.
      9 vectors produced by pass  4 Test12= 1.58D-15 8.33D-09 XBig12= 8.83D-08 1.22D-04.
      6 vectors produced by pass  5 Test12= 1.58D-15 8.33D-09 XBig12= 1.55D-10 4.85D-06.
      3 vectors produced by pass  6 Test12= 1.58D-15 8.33D-09 XBig12= 1.26D-13 1.58D-07.
 InvSVY:  IOpt=1 It=  1 EMax= 4.44D-16
 Solved reduced A of dimension    54 with     9 vectors.
 Isotropic polarizability for W=    0.000000        6.61 Bohr**3.
 End of Minotr F.D. properties file   721 does not exist.
 End of Minotr F.D. properties file   722 does not exist.
 End of Minotr F.D. properties file   788 does not exist.
   2 Symmetry operations used in ECPInt.
 ECPInt:  NShTT=     190 NPrTT=     556 LenC2=     191 LenP2D=     543.
 LDataN:  DoStor=T MaxTD1= 8 Len=  415
 Calling FoFJK, ICntrl=    100127 FMM=F ISym2X=1 I1Cent= 0 IOpClX= 0 NMat=1 NMatS=1 NMatT=0.
 ***** Axes restored to original set *****
 -------------------------------------------------------------------
 Center     Atomic                   Forces (Hartrees/Bohr)
 Number     Number              X              Y              Z
 -------------------------------------------------------------------
      1        8          -0.000001446   -0.000002018   -0.000000390
      2        1          -0.000004343    0.000004523    0.000000874
      3        1           0.000005789   -0.000002505   -0.000000484
 -------------------------------------------------------------------
 Cartesian Forces:  Max     0.000005789 RMS     0.000003099
 FormGI is forming the generalized inverse of G from B-inverse, IUseBI=4.

 GradGradGradGradGradGradGradGradGradGradGradGradGradGradGradGradGradGrad
 Berny optimization.
 Using GEDIIS/GDIIS optimizer.
 Internal  Forces:  Max     0.000008634 RMS     0.000006033
 Search for a local minimum.
 Step number   3 out of a maximum of   20
 All quantities printed in internal units (Hartrees-Bohrs-Radians)
 Mixed Optimization -- En-DIIS/RFO-DIIS
 Swapping is turned off.
 Second derivative matrix not updated -- analytic derivatives used.
 DE= -2.61D-07 DEPred=-2.61D-07 R= 1.00D+00
 Trust test= 1.00D+00 RLast= 9.91D-04 DXMaxT set to 3.00D-01
 The second derivative matrix:
                          R1        R2        A1
           R1           0.55109
           R2          -0.00793   0.55109
           A1           0.03030   0.03030   0.15148
 ITU=  0  1  0
     Eigenvalues ---    0.14684   0.54779   0.55902
 En-DIIS/RFO-DIIS/Sim-DIIS IScMMF=       -3 using points:     3    2
 RFO step:  Lambda= 0.00000000D+00.
 DidBck=F Rises=F RFO-DIIS coefs:    0.99298    0.00702
 Iteration  1 RMS(Cart)=  0.00003276 RMS(Int)=  0.00000000
 Iteration  2 RMS(Cart)=  0.00000000 RMS(Int)=  0.00000000
 ClnCor:  largest displacement from symmetrization is 1.34D-15 for atom     3.
 Variable       Old X    -DE/DX   Delta X   Delta X   Delta X     New X
                                 (Linear)    (Quad)   (Total)
    R1        1.81125  -0.00000  -0.00000   0.00000  -0.00000   1.81124
    R2        1.81125  -0.00000  -0.00000   0.00000  -0.00000   1.81124
    A1        1.83547  -0.00001  -0.00000  -0.00006  -0.00006   1.83542
         Item               Value     Threshold  Converged?
 Maximum Force            0.000009     0.000450     YES
 RMS     Force            0.000006     0.000300     YES
 Maximum Displacement     0.000035     0.001800     YES
 RMS     Displacement     0.000033     0.001200     YES
 Predicted change in Energy=-2.572342D-10
 Optimization completed.
    -- Stationary point found.
                           ----------------------------
                           !   Optimized Parameters   !
                           ! (Angstroms and Degrees)  !
 --------------------------                            --------------------------
 ! Name  Definition              Value          Derivative Info.                !
 --------------------------------------------------------------------------------
 ! R1    R(1,2)                  0.9585         -DE/DX =    0.0                 !
 ! R2    R(1,3)                  0.9585         -DE/DX =    0.0                 !
 ! A1    A(2,1,3)              105.1648         -DE/DX =    0.0                 !
 --------------------------------------------------------------------------------
 GradGradGradGradGradGradGradGradGradGradGradGradGradGradGradGradGradGrad

                          Input orientation:                          
 ---------------------------------------------------------------------
 Center     Atomic      Atomic             Coordinates (Angstroms)
 Number     Number       Type             X           Y           Z
 ---------------------------------------------------------------------
      1          8           0       -0.234430    1.159372   -0.002310
      2          1           0        0.723363    1.194730    0.004524
      3          1           0       -0.519743    2.057789    0.171207
 ---------------------------------------------------------------------
                    Distance matrix (angstroms):
                    1          2          3
     1  O    0.000000
     2  H    0.958470   0.000000
     3  H    0.958470   1.522487   0.000000
 Stoichiometry    H2O
 Framework group  CS[SG(H2O)]
 Deg. of freedom     3
 Full point group                 CS      NOp   2
 Largest Abelian subgroup         CS      NOp   2
 Largest concise Abelian subgroup C1      NOp   1
                         Standard orientation:                         
 ---------------------------------------------------------------------
 Center     Atomic      Atomic             Coordinates (Angstroms)
 Number     Number       Type             X           Y           Z
 ---------------------------------------------------------------------
      1          8           0        0.000000    0.116477   -0.000000
      2          1           0        0.761244   -0.465908   -0.000000
      3          1           0       -0.761244   -0.465908    0.000000
 ---------------------------------------------------------------------
 Rotational constants (GHZ):         832.3888364         432.6680854         284.6892325

 **********************************************************************

            Population analysis using the SCF Density.

 **********************************************************************

 Orbital symmetries:
       Occupied  (A') (A') (A') (A') (A")
       Virtual   (A') (A') (A') (A') (A") (A') (A') (A') (A') (A")
                 (A") (A') (A') (A') (A') (A") (A") (A') (A') (A')
                 (A') (A") (A') (A') (A') (A") (A') (A") (A") (A')
                 (A') (A') (A") (A") (A') (A') (A') (A')
 The electronic state is 1-A'.
 Alpha  occ. eigenvalues --  -19.20224  -1.03538  -0.54369  -0.40112  -0.32707
 Alpha virt. eigenvalues --    0.02177   0.07823   0.35821   0.40255   0.44130
 Alpha virt. eigenvalues --    0.44230   0.55880   0.57485   1.18026   1.20137
 Alpha virt. eigenvalues --    1.31527   1.51070   1.63584   1.74363   1.96199
 Alpha virt. eigenvalues --    2.05965   2.10591   2.26134   2.38424   2.58800
 Alpha virt. eigenvalues --    2.60839   2.66483   2.82300   3.62999   3.91958
 Alpha virt. eigenvalues --    5.11798   5.21528   5.39595   5.41469   5.46893
 Alpha virt. eigenvalues --    6.05178   6.26826   6.37166   6.42615   6.47896
 Alpha virt. eigenvalues --    6.91656   6.97852  43.23029
          Condensed to atoms (all electrons):
               1          2          3
     1  O    8.052703   0.299837   0.299837
     2  H    0.299837   0.395384  -0.021409
     3  H    0.299837  -0.021409   0.395384
 Mulliken charges:
               1
     1  O   -0.652377
     2  H    0.326188
     3  H    0.326188
 Sum of Mulliken charges =  -0.00000
 Mulliken charges with hydrogens summed into heavy atoms:
               1
     1  O   -0.000000
 APT charges:
               1
     1  O   -0.548699
     2  H    0.274350
     3  H    0.274350
 Sum of APT charges =   0.00000
 APT charges with hydrogens summed into heavy atoms:
               1
     1  O    0.000000
 Electronic spatial extent (au):  <R**2>=             19.4195
 Charge=             -0.0000 electrons
 Dipole moment (field-independent basis, Debye):
    X=             -0.0000    Y=             -2.0730    Z=             -0.0000  Tot=              2.0730
 Quadrupole moment (field-independent basis, Debye-Ang):
   XX=             -4.2430   YY=             -6.2246   ZZ=             -7.4789
   XY=             -0.0000   XZ=             -0.0000   YZ=              0.0000
 Traceless Quadrupole moment (field-independent basis, Debye-Ang):
   XX=              1.7391   YY=             -0.2424   ZZ=             -1.4967
   XY=             -0.0000   XZ=             -0.0000   YZ=              0.0000
 Octapole moment (field-independent basis, Debye-Ang**2):
  XXX=             -0.0000  YYY=             -1.3679  ZZZ=             -0.0000  XYY=              0.0000
  XXY=             -1.3507  XXZ=             -0.0000  XZZ=             -0.0000  YZZ=             -0.3705
  YYZ=             -0.0000  XYZ=              0.0000
 Hexadecapole moment (field-independent basis, Debye-Ang**3):
 XXXX=             -5.9682 YYYY=             -6.9884 ZZZZ=             -6.3284 XXXY=              0.0000
 XXXZ=             -0.0000 YYYX=              0.0000 YYYZ=              0.0000 ZZZX=              0.0000
 ZZZY=              0.0000 XXYY=             -1.8398 XXZZ=             -2.3365 YYZZ=             -2.2703
 XXYZ=              0.0000 YYXZ=             -0.0000 ZZXY=              0.0000
 N-N= 9.181273634246D+00 E-N=-1.993783623113D+02  KE= 7.620491758012D+01
 Symmetry A'   KE= 7.164436086390D+01
 Symmetry A"   KE= 4.560556716226D+00
  Exact polarizability:       8.087      -0.000       6.532       0.000      -0.000       5.216
 Approx polarizability:       9.606      -0.000       7.597      -0.000      -0.000       5.465
 Rotating derivatives to standard orientation.
 Full mass-weighted force constant matrix:
 Low frequencies --- -115.2821  -98.4966  -38.2166    0.0013    0.0015    0.0019
 Low frequencies --- 1598.5674 3854.3020 3977.8343
 Diagonal vibrational polarizability:
        0.1010828       0.8731956       0.0000000
 Harmonic frequencies (cm**-1), IR intensities (KM/Mole), Raman scattering
 activities (A**4/AMU), depolarization ratios for plane and unpolarized
 incident light, reduced masses (AMU), force constants (mDyne/A),
 and normal coordinates:
                      1                      2                      3
                     A'                     A'                     A'
 Frequencies --   1598.5674              3854.3020              3977.8343
 Red. masses --      1.0833                 1.0446                 1.0825
 Frc consts  --      1.6310                 9.1433                10.0920
 IR Inten    --     81.6307                 7.4743                59.4343
  Atom  AN      X      Y      Z        X      Y      Z        X      Y      Z
     1   8     0.00  -0.07  -0.00    -0.00   0.05   0.00    -0.07  -0.00   0.00
     2   1     0.42   0.56  -0.00     0.59  -0.39  -0.00     0.56  -0.43  -0.00
     3   1    -0.42   0.56   0.00    -0.59  -0.39   0.00     0.56   0.43  -0.00

 -------------------
 - Thermochemistry -
 -------------------
 Temperature   298.150 Kelvin.  Pressure   1.00000 Atm.
 Atom     1 has atomic number  8 and mass  15.99491
 Atom     2 has atomic number  1 and mass   1.00783
 Atom     3 has atomic number  1 and mass   1.00783
 Molecular mass:    18.01056 amu.
 Principal axes and moments of inertia in atomic units:
                           1         2         3
     Eigenvalues --     2.16815   4.17119   6.33934
           X            1.00000   0.00000   0.00000
           Y           -0.00000   1.00000   0.00000
           Z            0.00000  -0.00000   1.00000
 This molecule is an asymmetric top.
 Rotational symmetry number  1.
 Rotational temperatures (Kelvin)     39.94837    20.76479    13.66293
 Rotational constants (GHZ):         832.38884   432.66809   284.68923
 Zero-point vibrational energy      56408.1 (Joules/Mol)
                                   13.48187 (Kcal/Mol)
 Vibrational temperatures:   2299.98  5545.48  5723.22
          (Kelvin)
 
 Zero-point correction=                           0.021485 (Hartree/Particle)
 Thermal correction to Energy=                    0.024321
 Thermal correction to Enthalpy=                  0.025265
 Thermal correction to Gibbs Free Energy=         0.003199
 Sum of electronic and zero-point Energies=            -76.400582
 Sum of electronic and thermal Energies=               -76.397747
 Sum of electronic and thermal Enthalpies=             -76.396802
 Sum of electronic and thermal Free Energies=          -76.418868
 
                     E (Thermal)             CV                S
                      KCal/Mol        Cal/Mol-Kelvin    Cal/Mol-Kelvin
 Total                   15.261              6.014             46.442
 Electronic               0.000              0.000              0.000
 Translational            0.889              2.981             34.608
 Rotational               0.889              2.981             11.826
 Vibrational             13.484              0.053              0.008
                       Q            Log10(Q)             Ln(Q)
 Total Bot       0.337833D-01         -1.471297         -3.387787
 Total V=0       0.257621D+09          8.410981         19.366999
 Vib (Bot)       0.131195D-09         -9.882084        -22.754340
 Vib (V=0)       0.100045D+01          0.000194          0.000447
 Electronic      0.100000D+01          0.000000          0.000000
 Translational   0.300431D+07          6.477745         14.915559
 Rotational      0.857121D+02          1.933042          4.450994
 ***** Axes restored to original set *****
 -------------------------------------------------------------------
 Center     Atomic                   Forces (Hartrees/Bohr)
 Number     Number              X              Y              Z
 -------------------------------------------------------------------
      1        8          -0.000001446   -0.000002018   -0.000000390
      2        1          -0.000004343    0.000004523    0.000000874
      3        1           0.000005789   -0.000002505   -0.000000484
 -------------------------------------------------------------------
 Cartesian Forces:  Max     0.000005789 RMS     0.000003099

 ----------------------------------------------------------------------

 Electric dipole moment (input orientation):
 (Debye = 10**-18 statcoulomb cm , SI units = C m)
                  (au)            (Debye)         (10**-30 SI)
   Tot        0.815564D+00      0.207296D+01      0.691464D+01
   x          0.470866D+00      0.119682D+01      0.399217D+01
   y          0.653822D+00      0.166185D+01      0.554334D+01
   z          0.126280D+00      0.320972D+00      0.107065D+01

 Dipole polarizability, Alpha (input orientation).
 (esu units = cm**3 , SI units = C**2 m**2 J**-1)
 Alpha(0;0):
               (au)            (10**-24 esu)      (10**-40 SI)
   iso        0.661157D+01      0.979733D+00      0.109010D+01
   aniso      0.248924D+01      0.368867D+00      0.410420D+00
   xx         0.756857D+01      0.112155D+01      0.124789D+01
   yx        -0.719773D+00     -0.106659D+00     -0.118675D+00
   yy         0.698425D+01      0.103496D+01      0.115155D+01
   zx        -0.139004D+00     -0.205982D-01     -0.229186D-01
   zy         0.341526D+00      0.506090D-01      0.563101D-01
   zz         0.528188D+01      0.782694D+00      0.870865D+00

 ----------------------------------------------------------------------

 Dipole orientation:
     8         -1.19071213          1.15266803          1.49995234
     1          0.06258985          0.44652607          2.60050159
     1         -2.44401412          1.85880999          2.60050157

 Electric dipole moment (dipole orientation):
 (Debye = 10**-18 statcoulomb cm , SI units = C m)
                  (au)            (Debye)         (10**-30 SI)
   Tot        0.815564D+00      0.207296D+01      0.691464D+01
   x          0.000000D+00      0.000000D+00      0.000000D+00
   y          0.000000D+00      0.000000D+00      0.000000D+00
   z          0.815564D+00      0.207296D+01      0.691464D+01

 Dipole polarizability, Alpha (dipole orientation).
 (esu units = cm**3 , SI units = C**2 m**2 J**-1)
 Alpha(0;0):
               (au)            (10**-24 esu)      (10**-40 SI)
   iso        0.661157D+01      0.979733D+00      0.109010D+01
   aniso      0.248924D+01      0.368867D+00      0.410420D+00
   xx         0.739514D+01      0.109585D+01      0.121929D+01
   yx        -0.122783D+01     -0.181945D+00     -0.202441D+00
   yy         0.590771D+01      0.875432D+00      0.974050D+00
   zx         0.000000D+00      0.000000D+00      0.000000D+00
   zy         0.000000D+00      0.000000D+00      0.000000D+00
   zz         0.653185D+01      0.967920D+00      0.107696D+01

 ----------------------------------------------------------------------
 Unable to Open any file for archive entry.
 1\1\GINC-GADI-CPU-CLX-1826\Freq\RM06\def2TZVP\H2O1\PK8622\18-Jun-2020\
 0\\# M06/Def2TZVP Freq=(anharmonic,ReadAnharm) Opt=CalcAll\\Anharmonic
  frequencies for H2O using VPT2\\0,1\O,-0.2344300506,1.159371638,-0.00
 23102202\H,0.7233631089,1.1947297799,0.0045235704\H,-0.5197430583,2.05
 77885821,0.1712066499\\Version=ES64L-G16RevC.01\State=1-A'\HF=-76.4220
 671\RMSD=4.320e-09\RMSF=3.099e-06\ZeroPoint=0.0214847\Thermal=0.024320
 5\ETot=-76.3977465\HTot=-76.3968023\GTot=-76.4188684\Dipole=0.4708656,
 0.6538224,0.1262802\DipoleDeriv=-0.4756961,0.06408,0.0123776,0.06408,-
 0.4407419,0.0579634,0.0123776,0.0579634,-0.7296596,0.1658521,-0.049214
 1,-0.0095061,-0.0648511,0.2897779,-0.0155768,-0.0125262,-0.0155767,0.3
 674188,0.3098439,-0.0148659,-0.0028715,0.0007711,0.150964,-0.0423867,0
 .0001486,-0.0423867,0.3622408\Polar=7.5685696,-0.7197732,6.9842452,-0.
 1390037,0.3415264,5.2818833\PG=CS [SG(H2O1)]\NImag=0\\0.62113612,-0.11
 672879,0.51772538,-0.02254163,0.10016565,0.01844537,-0.53619731,0.0099
 9670,0.00192805,0.55164826,-0.04991736,-0.04134709,-0.00807288,0.00225
 443,0.04395104,-0.00964362,-0.00807258,-0.00110902,0.00043818,0.008567
 82,0.00124469,-0.08493881,0.10673209,0.02061358,-0.01545095,0.04766293
 ,0.00920544,0.10038976,0.16664615,-0.47637828,-0.09209277,-0.01225112,
 -0.00260395,-0.00049524,-0.15439503,0.47898223,0.03218525,-0.09209307,
 -0.01733635,-0.00236623,-0.00049494,-0.00013567,-0.02981902,0.09258802
 ,0.01747202\\0.00000145,0.00000202,0.00000039,0.00000434,-0.00000452,-
 0.00000087,-0.00000579,0.00000251,0.00000048\\\@
 The archive entry for this job was punched.


 IT PROBABLY IS NOT POSSIBLE FOR A SCIENTIST TO INTERROGATE NATURE 
 FROM A WHOLLY DISINTERESTED VIEWPOINT.
 EVEN IF HE HAS NO PARTICULAR AXE TO GRIND, HE IS LIKELY TO HAVE 
 A DISTINCTIVE WAY OF VIEWING NATURE.

                                                   -- JOHN LOSEE
 Job cpu time:       0 days  0 hours  0 minutes 33.3 seconds.
 Elapsed time:       0 days  0 hours  0 minutes 33.2 seconds.
 File lengths (MBytes):  RWF=      6 Int=      0 D2E=      0 Chk=      1 Scr=      1
 Normal termination of Gaussian 16 at Thu Jun 18 14:13:30 2020.
 Link1:  Proceeding to internal job step number  2.
 ------------------------------------------------------------------
 #N Geom=AllCheck Guess=TCheck SCRF=Check GenChk RM06/def2TZVP Freq
 ------------------------------------------------------------------
 1/10=4,29=7,30=1,38=21,40=1,80=1/1,6,3;
 2/12=2,40=1/2;
 3/5=44,7=101,11=2,14=-4,25=1,30=1,70=2,71=2,74=-54,116=1,140=1/1,2,3;
 4/5=101,69=2/1;
 5/5=2,38=6,98=1/2;
 8/6=4,10=90,11=11/1;
 11/6=1,8=1,9=11,15=111,16=1/1,2,10;
 10/6=1,60=-2/2;
 6/7=2,8=2,9=2,10=2,28=1/1;
 7/10=1,25=1,71=2,72=1/1,2,3,16;
 1/38=20,80=1/6(3);
 7/8=1,25=202,44=-1,71=1,72=1,92=10/16,17;
 1/10=4,30=1,38=20,80=1/3;
 99//99;
 3/5=44,7=101,11=2,14=-2,25=1,30=1,70=5,71=2,74=-54,116=1,140=1/1,2,3;
 4/5=5,16=3,69=2/1;
 5/5=2,38=5,98=1/2;
 8/6=4,10=90,11=11/1;
 11/6=1,8=1,9=11,15=111,16=1/1,2,10;
 10/6=1,60=-2/2;
 6/7=2,8=2,9=2,10=2,28=1/1;
 7/7=1,10=1,25=1,71=1,72=1/1,2,3,16;
 1/38=20,80=1/6(-8);
 7/8=1,25=202,44=-1,71=1,72=1,92=10/16,17;
 1/10=4,30=1,38=20,80=1/3;
 99//99;
 Structure from the checkpoint file:  "/jobfs/7271862.gadi-pbs/Gau-55280.chk"
 -----------------------------------------
 Anharmonic frequencies for H2O using VPT2
 -----------------------------------------
 Charge =  0 Multiplicity = 1
 Redundant internal coordinates found in file.  (old form).
 O,0,-0.2344300506,1.159371638,-0.0023102202
 H,0,0.7233631089,1.1947297799,0.0045235704
 H,0,-0.5197430583,2.0577885821,0.1712066499
 Recover connectivity data from disk.
 Numerical evaluation of third derivatives.
 Nuclear step= 0.010000 Angstroms, electric field step= 0.000333 atomic units, NStep=1.

 GradGradGradGradGradGradGradGradGradGradGradGradGradGradGradGradGradGrad
 Berny optimization.
 Initialization pass.
                           ----------------------------
                           !    Initial Parameters    !
                           ! (Angstroms and Degrees)  !
 --------------------------                            --------------------------
 ! Name  Definition              Value          Derivative Info.                !
 --------------------------------------------------------------------------------
 ! R1    R(1,2)                  0.9585         calculate D2E/DX2 analytically  !
 ! R2    R(1,3)                  0.9585         calculate D2E/DX2 analytically  !
 ! A1    A(2,1,3)              105.1648         calculate D2E/DX2 analytically  !
 --------------------------------------------------------------------------------
 Trust Radius=3.00D-01 FncErr=1.00D-07 GrdErr=1.00D-07 EigMax=2.50D+02 EigMin=1.00D-04
 Number of steps in this run=      2 maximum allowed number of steps=      2.
 GradGradGradGradGradGradGradGradGradGradGradGradGradGradGradGradGradGrad

                          Input orientation:                          
 ---------------------------------------------------------------------
 Center     Atomic      Atomic             Coordinates (Angstroms)
 Number     Number       Type             X           Y           Z
 ---------------------------------------------------------------------
      1          8           0       -0.234430    1.159372   -0.002310
      2          1           0        0.723363    1.194730    0.004524
      3          1           0       -0.519743    2.057789    0.171207
 ---------------------------------------------------------------------
                    Distance matrix (angstroms):
                    1          2          3
     1  O    0.000000
     2  H    0.958470   0.000000
     3  H    0.958470   1.522487   0.000000
 Stoichiometry    H2O
 Framework group  CS[SG(H2O)]
 Deg. of freedom     3
 Full point group                 CS      NOp   2
 Largest Abelian subgroup         CS      NOp   2
 Largest concise Abelian subgroup C1      NOp   1
                         Standard orientation:                         
 ---------------------------------------------------------------------
 Center     Atomic      Atomic             Coordinates (Angstroms)
 Number     Number       Type             X           Y           Z
 ---------------------------------------------------------------------
      1          8           0        0.000000    0.116477    0.000000
      2          1           0        0.761244   -0.465908   -0.000000
      3          1           0       -0.761244   -0.465908    0.000000
 ---------------------------------------------------------------------
 Rotational constants (GHZ):         832.3888364         432.6680854         284.6892325
 Standard basis: def2TZVP (5D, 7F)
 There are    35 symmetry adapted cartesian basis functions of A'  symmetry.
 There are    13 symmetry adapted cartesian basis functions of A"  symmetry.
 There are    31 symmetry adapted basis functions of A'  symmetry.
 There are    12 symmetry adapted basis functions of A"  symmetry.
    43 basis functions,    67 primitive gaussians,    48 cartesian basis functions
     5 alpha electrons        5 beta electrons
       nuclear repulsion energy         9.1812736342 Hartrees.
 NAtoms=    3 NActive=    3 NUniq=    3 SFac= 1.00D+00 NAtFMM=   60 NAOKFM=F Big=F
 Integral buffers will be    131072 words long.
 Raffenetti 2 integral format.
 Two-electron integral symmetry is turned on.
 One-electron integrals computed using PRISM.
   2 Symmetry operations used in ECPInt.
 ECPInt:  NShTT=     190 NPrTT=     556 LenC2=     191 LenP2D=     543.
 LDataN:  DoStor=T MaxTD1= 6 Len=  172
 NBasis=    43 RedAO= T EigKep=  8.35D-03  NBF=    31    12
 NBsUse=    43 1.00D-06 EigRej= -1.00D+00 NBFU=    31    12
 Initial guess from the checkpoint file:  "/jobfs/7271862.gadi-pbs/Gau-55280.chk"
 B after Tr=     0.000000    0.000000   -0.000000
         Rot=    1.000000    0.000000    0.000000   -0.000000 Ang=   0.00 deg.
 Initial guess orbital symmetries:
       Occupied  (A') (A') (A') (A') (A")
       Virtual   (A') (A') (A') (A') (A") (A') (A') (A') (A') (A")
                 (A") (A') (A') (A') (A') (A") (A") (A') (A') (A')
                 (A') (A") (A') (A') (A') (A") (A') (A") (A") (A')
                 (A') (A') (A") (A") (A') (A') (A') (A')
 Keep R1 ints in memory in symmetry-blocked form, NReq=2405575.
 Requested convergence on RMS density matrix=1.00D-08 within 128 cycles.
 Requested convergence on MAX density matrix=1.00D-06.
 Requested convergence on             energy=1.00D-06.
 No special actions if energy rises.
 SCF Done:  E(RM06) =  -76.4220670513     A.U. after    1 cycles
            NFock=  1  Conv=0.15D-09     -V/T= 2.0028
 DoSCS=F DFT=T ScalE2(SS,OS)=  1.000000  1.000000
 Range of M.O.s used for correlation:     1    43
 NBasis=    43 NAE=     5 NBE=     5 NFC=     0 NFV=     0
 NROrb=     43 NOA=     5 NOB=     5 NVA=    38 NVB=    38
   2 Symmetry operations used in ECPInt.
 ECPInt:  NShTT=     190 NPrTT=     556 LenC2=     191 LenP2D=     543.
 LDataN:  DoStor=T MaxTD1= 7 Len=  274
 Symmetrizing basis deriv contribution to polar:
 IMax=3 JMax=2 DiffMx= 0.00D+00
 G2DrvN: will do     4 centers at a time, making    1 passes.
 Calling FoFCou, ICntrl=  3107 FMM=F I1Cent=   0 AccDes= 0.00D+00.
 End of G2Drv F.D. properties file   721 does not exist.
 End of G2Drv F.D. properties file   722 does not exist.
 End of G2Drv F.D. properties file   788 does not exist.
          IDoAtm=111
          Differentiating once with respect to electric field.
                with respect to dipole field.
          Differentiating once with respect to nuclear coordinates.
 Keep R1 ints in memory in symmetry-blocked form, NReq=2407485.
          There are    12 degrees of freedom in the 1st order CPHF.  IDoFFX=6 NUNeed=     3.
      9 vectors produced by pass  0 Test12= 1.58D-15 8.33D-09 XBig12= 3.32D+00 1.20D+00.
 AX will form     9 AO Fock derivatives at one time.
      9 vectors produced by pass  1 Test12= 1.58D-15 8.33D-09 XBig12= 3.94D-01 2.64D-01.
      9 vectors produced by pass  2 Test12= 1.58D-15 8.33D-09 XBig12= 5.63D-03 2.57D-02.
      9 vectors produced by pass  3 Test12= 1.58D-15 8.33D-09 XBig12= 2.42D-05 2.60D-03.
      9 vectors produced by pass  4 Test12= 1.58D-15 8.33D-09 XBig12= 8.59D-08 1.17D-04.
      6 vectors produced by pass  5 Test12= 1.58D-15 8.33D-09 XBig12= 1.53D-10 4.93D-06.
      3 vectors produced by pass  6 Test12= 1.58D-15 8.33D-09 XBig12= 1.09D-13 1.48D-07.
 InvSVY:  IOpt=1 It=  1 EMax= 3.33D-16
 Solved reduced A of dimension    54 with     9 vectors.
 Isotropic polarizability for W=    0.000000        6.61 Bohr**3.
 End of Minotr F.D. properties file   721 does not exist.
 End of Minotr F.D. properties file   722 does not exist.
 End of Minotr F.D. properties file   788 does not exist.

 **********************************************************************

            Population analysis using the SCF Density.

 **********************************************************************

 Orbital symmetries:
       Occupied  (A') (A') (A') (A') (A")
       Virtual   (A') (A') (A') (A') (A") (A') (A') (A') (A') (A")
                 (A") (A') (A') (A') (A') (A") (A") (A') (A') (A')
                 (A') (A") (A') (A') (A') (A") (A') (A") (A") (A')
                 (A') (A') (A") (A") (A') (A') (A') (A')
 The electronic state is 1-A'.
 Alpha  occ. eigenvalues --  -19.20224  -1.03538  -0.54369  -0.40112  -0.32707
 Alpha virt. eigenvalues --    0.02177   0.07823   0.35821   0.40255   0.44130
 Alpha virt. eigenvalues --    0.44230   0.55880   0.57485   1.18026   1.20137
 Alpha virt. eigenvalues --    1.31527   1.51070   1.63584   1.74363   1.96199
 Alpha virt. eigenvalues --    2.05965   2.10591   2.26134   2.38424   2.58800
 Alpha virt. eigenvalues --    2.60839   2.66483   2.82300   3.62999   3.91958
 Alpha virt. eigenvalues --    5.11798   5.21528   5.39595   5.41469   5.46893
 Alpha virt. eigenvalues --    6.05178   6.26826   6.37166   6.42615   6.47896
 Alpha virt. eigenvalues --    6.91656   6.97852  43.23029
          Condensed to atoms (all electrons):
               1          2          3
     1  O    8.052703   0.299837   0.299837
     2  H    0.299837   0.395384  -0.021409
     3  H    0.299837  -0.021409   0.395384
 Mulliken charges:
               1
     1  O   -0.652377
     2  H    0.326188
     3  H    0.326188
 Sum of Mulliken charges =  -0.00000
 Mulliken charges with hydrogens summed into heavy atoms:
               1
     1  O   -0.000000
 APT charges:
               1
     1  O   -0.548506
     2  H    0.274253
     3  H    0.274253
 Sum of APT charges =  -0.00000
 APT charges with hydrogens summed into heavy atoms:
               1
     1  O   -0.000000
 Electronic spatial extent (au):  <R**2>=             19.4195
 Charge=             -0.0000 electrons
 Dipole moment (field-independent basis, Debye):
    X=             -0.0000    Y=             -2.0730    Z=              0.0000  Tot=              2.0730
 Quadrupole moment (field-independent basis, Debye-Ang):
   XX=             -4.2430   YY=             -6.2246   ZZ=             -7.4789
   XY=             -0.0000   XZ=             -0.0000   YZ=             -0.0000
 Traceless Quadrupole moment (field-independent basis, Debye-Ang):
   XX=              1.7391   YY=             -0.2424   ZZ=             -1.4967
   XY=             -0.0000   XZ=             -0.0000   YZ=             -0.0000
 Octapole moment (field-independent basis, Debye-Ang**2):
  XXX=             -0.0000  YYY=             -1.3679  ZZZ=             -0.0000  XYY=              0.0000
  XXY=             -1.3507  XXZ=             -0.0000  XZZ=             -0.0000  YZZ=             -0.3705
  YYZ=             -0.0000  XYZ=              0.0000
 Hexadecapole moment (field-independent basis, Debye-Ang**3):
 XXXX=             -5.9682 YYYY=             -6.9884 ZZZZ=             -6.3284 XXXY=              0.0000
 XXXZ=              0.0000 YYYX=              0.0000 YYYZ=             -0.0000 ZZZX=              0.0000
 ZZZY=             -0.0000 XXYY=             -1.8398 XXZZ=             -2.3365 YYZZ=             -2.2703
 XXYZ=             -0.0000 YYXZ=              0.0000 ZZXY=              0.0000
 N-N= 9.181273634246D+00 E-N=-1.993783622687D+02  KE= 7.620491755811D+01
 Symmetry A'   KE= 7.164436084726D+01
 Symmetry A"   KE= 4.560556710844D+00
  Exact polarizability:       8.084      -0.000       6.530      -0.000       0.000       5.215
 Approx polarizability:       9.606      -0.000       7.597      -0.000      -0.000       5.465
   2 Symmetry operations used in ECPInt.
 ECPInt:  NShTT=     190 NPrTT=     556 LenC2=     191 LenP2D=     543.
 LDataN:  DoStor=T MaxTD1= 8 Len=  415
 Calling FoFJK, ICntrl=    100127 FMM=F ISym2X=1 I1Cent= 0 IOpClX= 0 NMat=1 NMatS=1 NMatT=0.
 Full mass-weighted force constant matrix:
 Low frequencies ---  -98.8060  -84.3229  -45.2211   -0.0005    0.0013    0.0016
 Low frequencies --- 1598.7584 3853.9142 3977.3260
 Diagonal vibrational polarizability:
        0.1009441       0.8740660       0.0000000
 Harmonic frequencies (cm**-1), IR intensities (KM/Mole), Raman scattering
 activities (A**4/AMU), depolarization ratios for plane and unpolarized
 incident light, reduced masses (AMU), force constants (mDyne/A),
 and normal coordinates:
                      1                      2                      3
                     A'                     A'                     A'
 Frequencies --   1598.7584              3853.9142              3977.3260
 Red. masses --      1.0833                 1.0446                 1.0825
 Frc consts  --      1.6314                 9.1414                10.0894
 IR Inten    --     81.7506                 7.3699                59.3376
  Atom  AN      X      Y      Z        X      Y      Z        X      Y      Z
     1   8     0.00  -0.07   0.00    -0.00   0.05  -0.00    -0.07  -0.00   0.00
     2   1     0.42   0.56  -0.00     0.59  -0.39  -0.00     0.56  -0.43  -0.00
     3   1    -0.42   0.56   0.00    -0.59  -0.39   0.00     0.56   0.43  -0.00

 -------------------
 - Thermochemistry -
 -------------------
 Temperature   298.150 Kelvin.  Pressure   1.00000 Atm.
 Atom     1 has atomic number  8 and mass  15.99491
 Atom     2 has atomic number  1 and mass   1.00783
 Atom     3 has atomic number  1 and mass   1.00783
 Molecular mass:    18.01056 amu.
 Principal axes and moments of inertia in atomic units:
                           1         2         3
     Eigenvalues --     2.16815   4.17119   6.33934
           X            1.00000   0.00000   0.00000
           Y           -0.00000   1.00000   0.00000
           Z           -0.00000  -0.00000   1.00000
 This molecule is an asymmetric top.
 Rotational symmetry number  1.
 Rotational temperatures (Kelvin)     39.94837    20.76479    13.66293
 Rotational constants (GHZ):         832.38884   432.66809   284.68923
 Zero-point vibrational energy      56403.9 (Joules/Mol)
                                   13.48086 (Kcal/Mol)
 Vibrational temperatures:   2300.26  5544.92  5722.48
          (Kelvin)
 
 Zero-point correction=                           0.021483 (Hartree/Particle)
 Thermal correction to Energy=                    0.024319
 Thermal correction to Enthalpy=                  0.025263
 Thermal correction to Gibbs Free Energy=         0.003197
 Sum of electronic and zero-point Energies=            -76.400584
 Sum of electronic and thermal Energies=               -76.397748
 Sum of electronic and thermal Enthalpies=             -76.396804
 Sum of electronic and thermal Free Energies=          -76.418870
 
                     E (Thermal)             CV                S
                      KCal/Mol        Cal/Mol-Kelvin    Cal/Mol-Kelvin
 Total                   15.260              6.014             46.442
 Electronic               0.000              0.000              0.000
 Translational            0.889              2.981             34.608
 Rotational               0.889              2.981             11.826
 Vibrational             13.483              0.053              0.008
                       Q            Log10(Q)             Ln(Q)
 Total Bot       0.338409D-01         -1.470559         -3.386087
 Total V=0       0.257621D+09          8.410981         19.366998
 Vib (Bot)       0.131418D-09         -9.881346        -22.752639
 Vib (V=0)       0.100045D+01          0.000194          0.000446
 Electronic      0.100000D+01          0.000000          0.000000
 Translational   0.300431D+07          6.477745         14.915559
 Rotational      0.857121D+02          1.933042          4.450994

     ==================================================
      Anharmonic Data: Displacement Vectors Definition
     ==================================================

 Framework definition based on atomic masses: CS  
 ***** Axes restored to original set *****
 -------------------------------------------------------------------
 Center     Atomic                   Forces (Hartrees/Bohr)
 Number     Number              X              Y              Z
 -------------------------------------------------------------------
      1        8          -0.000001446   -0.000002017   -0.000000390
      2        1          -0.000004344    0.000004523    0.000000874
      3        1           0.000005789   -0.000002506   -0.000000484
 -------------------------------------------------------------------
 Cartesian Forces:  Max     0.000005789 RMS     0.000003099
 FormGI is forming the generalized inverse of G from B-inverse, IUseBI=4.
 NDeriv=      3 NFrqRd=  0 NDerD0=      0 MskFDP=       0 MskDFD=       0 MskDF0=       0
 At 1st pt F.D. properties file   721 does not exist.
 At 1st pt F.D. properties file   722 does not exist.
 D2Numr ... symmetry will not be used.
 Standard basis: def2TZVP (5D, 7F)
    43 basis functions,    67 primitive gaussians,    48 cartesian basis functions
     5 alpha electrons        5 beta electrons
       nuclear repulsion energy         9.1786646604 Hartrees.
 NAtoms=    3 NActive=    3 NUniq=    3 SFac= 1.00D+00 NAtFMM=   60 NAOKFM=F Big=F
 Integral buffers will be    131072 words long.
 Raffenetti 2 integral format.
 Two-electron integral symmetry is turned off.
 One-electron integrals computed using PRISM.
   1 Symmetry operations used in ECPInt.
 ECPInt:  NShTT=     190 NPrTT=     556 LenC2=     191 LenP2D=     543.
 LDataN:  DoStor=T MaxTD1= 6 Len=  172
 NBasis=    43 RedAO= T EigKep=  8.36D-03  NBF=    43
 NBsUse=    43 1.00D-06 EigRej= -1.00D+00 NBFU=    43
 Initial guess from the checkpoint file:  "/jobfs/7271862.gadi-pbs/Gau-55280.chk"
 B after Tr=     0.000000   -0.001014    0.000000
         Rot=    1.000000   -0.000000    0.000000    0.000000 Ang=   0.00 deg.
 Keep R1 ints in memory in canonical form, NReq=2402932.
 Requested convergence on RMS density matrix=1.00D-08 within 128 cycles.
 Requested convergence on MAX density matrix=1.00D-06.
 Requested convergence on             energy=1.00D-06.
 No special actions if energy rises.
 SCF Done:  E(RM06) =  -76.4220498363     A.U. after    7 cycles
            NFock=  7  Conv=0.19D-08     -V/T= 2.0029
 DoSCS=F DFT=T ScalE2(SS,OS)=  1.000000  1.000000
 Range of M.O.s used for correlation:     1    43
 NBasis=    43 NAE=     5 NBE=     5 NFC=     0 NFV=     0
 NROrb=     43 NOA=     5 NOB=     5 NVA=    38 NVB=    38
   1 Symmetry operations used in ECPInt.
 ECPInt:  NShTT=     190 NPrTT=     556 LenC2=     191 LenP2D=     543.
 LDataN:  DoStor=T MaxTD1= 7 Len=  274
 Symmetrizing basis deriv contribution to polar:
 IMax=3 JMax=2 DiffMx= 0.00D+00
 G2DrvN: will do     4 centers at a time, making    1 passes.
 Calling FoFCou, ICntrl=  3107 FMM=F I1Cent=   0 AccDes= 0.00D+00.
 End of G2Drv F.D. properties file   721 does not exist.
 End of G2Drv F.D. properties file   722 does not exist.
 End of G2Drv F.D. properties file   788 does not exist.
          IDoAtm=111
          Differentiating once with respect to electric field.
                with respect to dipole field.
          Differentiating once with respect to nuclear coordinates.
 Keep R1 ints in memory in canonical form, NReq=2404839.
          There are    12 degrees of freedom in the 1st order CPHF.  IDoFFX=6 NUNeed=     3.
      9 vectors produced by pass  0 Test12= 1.58D-15 8.33D-09 XBig12= 3.31D+00 1.20D+00.
 AX will form     9 AO Fock derivatives at one time.
      9 vectors produced by pass  1 Test12= 1.58D-15 8.33D-09 XBig12= 4.06D-01 2.69D-01.
      9 vectors produced by pass  2 Test12= 1.58D-15 8.33D-09 XBig12= 5.79D-03 2.60D-02.
      9 vectors produced by pass  3 Test12= 1.58D-15 8.33D-09 XBig12= 2.48D-05 2.62D-03.
      9 vectors produced by pass  4 Test12= 1.58D-15 8.33D-09 XBig12= 8.55D-08 1.19D-04.
      6 vectors produced by pass  5 Test12= 1.58D-15 8.33D-09 XBig12= 1.52D-10 4.85D-06.
      3 vectors produced by pass  6 Test12= 1.58D-15 8.33D-09 XBig12= 1.11D-13 1.51D-07.
 InvSVY:  IOpt=1 It=  1 EMax= 5.55D-16
 Solved reduced A of dimension    54 with     9 vectors.
 Isotropic polarizability for W=    0.000000        6.62 Bohr**3.
 End of Minotr F.D. properties file   721 does not exist.
 End of Minotr F.D. properties file   722 does not exist.
 End of Minotr F.D. properties file   788 does not exist.

 **********************************************************************

            Population analysis using the SCF Density.

 **********************************************************************

 Alpha  occ. eigenvalues --  -19.20270  -1.03582  -0.54199  -0.40275  -0.32720
 Alpha virt. eigenvalues --    0.02155   0.07829   0.35658   0.40433   0.44127
 Alpha virt. eigenvalues --    0.44221   0.55878   0.57573   1.17334   1.20311
 Alpha virt. eigenvalues --    1.31233   1.51051   1.63888   1.74842   1.96261
 Alpha virt. eigenvalues --    2.06408   2.10148   2.26362   2.37476   2.58863
 Alpha virt. eigenvalues --    2.60558   2.66503   2.82242   3.63834   3.91357
 Alpha virt. eigenvalues --    5.11686   5.21857   5.39373   5.41610   5.45827
 Alpha virt. eigenvalues --    6.05678   6.26449   6.37335   6.42404   6.48581
 Alpha virt. eigenvalues --    6.90458   6.98708  43.22929
          Condensed to atoms (all electrons):
               1          2          3
     1  O    8.052057   0.298827   0.298827
     2  H    0.298827   0.397709  -0.021391
     3  H    0.298827  -0.021391   0.397709
 Mulliken charges:
               1
     1  O   -0.649711
     2  H    0.324855
     3  H    0.324855
 Sum of Mulliken charges =  -0.00000
 Mulliken charges with hydrogens summed into heavy atoms:
               1
     1  O   -0.000000
 APT charges:
               1
     1  O   -0.544342
     2  H    0.272171
     3  H    0.272171
 Sum of APT charges =  -0.00000
 APT charges with hydrogens summed into heavy atoms:
               1
     1  O   -0.000000
 Electronic spatial extent (au):  <R**2>=             19.4235
 Charge=             -0.0000 electrons
 Dipole moment (field-independent basis, Debye):
    X=             -0.0000    Y=             -2.0868    Z=             -0.0000  Tot=              2.0868
 Quadrupole moment (field-independent basis, Debye-Ang):
   XX=             -4.2807   YY=             -6.1970   ZZ=             -7.4788
   XY=             -0.0000   XZ=             -0.0000   YZ=             -0.0000
 Traceless Quadrupole moment (field-independent basis, Debye-Ang):
   XX=              1.7048   YY=             -0.2115   ZZ=             -1.4933
   XY=             -0.0000   XZ=             -0.0000   YZ=             -0.0000
 Octapole moment (field-independent basis, Debye-Ang**2):
  XXX=             -0.0000  YYY=             -1.3731  ZZZ=             -0.0000  XYY=              0.0000
  XXY=             -1.3457  XXZ=              0.0000  XZZ=             -0.0000  YZZ=             -0.3689
  YYZ=              0.0000  XYZ=              0.0000
 Hexadecapole moment (field-independent basis, Debye-Ang**3):
 XXXX=             -6.0017 YYYY=             -6.9931 ZZZZ=             -6.3272 XXXY=              0.0000
 XXXZ=             -0.0000 YYYX=              0.0000 YYYZ=             -0.0000 ZZZX=             -0.0000
 ZZZY=             -0.0000 XXYY=             -1.8348 XXZZ=             -2.3347 YYZZ=             -2.2730
 XXYZ=             -0.0000 YYXZ=             -0.0000 ZZXY=              0.0000
 N-N= 9.178664660384D+00 E-N=-1.993711585278D+02  KE= 7.620465469485D+01
  Exact polarizability:       8.064      -0.000       6.574       0.000       0.000       5.220
 Approx polarizability:       9.575      -0.000       7.669       0.000       0.000       5.471
   1 Symmetry operations used in ECPInt.
 ECPInt:  NShTT=     190 NPrTT=     556 LenC2=     191 LenP2D=     543.
 LDataN:  DoStor=T MaxTD1= 8 Len=  415
 Calling FoFJK, ICntrl=    100127 FMM=F ISym2X=0 I1Cent= 0 IOpClX= 0 NMat=1 NMatS=1 NMatT=0.
 -------------------------------------------------------------------
 Center     Atomic                   Forces (Hartrees/Bohr)
 Number     Number              X              Y              Z
 -------------------------------------------------------------------
      1        8           0.000000006   -0.002020090    0.000000000
      2        1           0.000737081    0.001010047    0.000000000
      3        1          -0.000737087    0.001010043   -0.000000000
 -------------------------------------------------------------------
 Cartesian Forces:  Max     0.002020090 RMS     0.000894907
 NDeriv=      3 NFrqRd=  0 NDerD0=      0 MskFDP=       0 MskDFD=       0 MskDF0=       0
 Re-enter D2Numr:  normal mode      1 step-up   number 1
 Standard basis: def2TZVP (5D, 7F)
    43 basis functions,    67 primitive gaussians,    48 cartesian basis functions
     5 alpha electrons        5 beta electrons
       nuclear repulsion energy         9.1833917101 Hartrees.
 NAtoms=    3 NActive=    3 NUniq=    3 SFac= 1.00D+00 NAtFMM=   60 NAOKFM=F Big=F
 Integral buffers will be    131072 words long.
 Raffenetti 2 integral format.
 Two-electron integral symmetry is turned off.
 One-electron integrals computed using PRISM.
   1 Symmetry operations used in ECPInt.
 ECPInt:  NShTT=     190 NPrTT=     556 LenC2=     191 LenP2D=     543.
 LDataN:  DoStor=T MaxTD1= 6 Len=  172
 NBasis=    43 RedAO= T EigKep=  8.34D-03  NBF=    43
 NBsUse=    43 1.00D-06 EigRej= -1.00D+00 NBFU=    43
 Initial guess from the checkpoint file:  "/jobfs/7271862.gadi-pbs/Gau-55280.chk"
 B after Tr=    -0.000000    0.001014   -0.000000
         Rot=    1.000000    0.000000   -0.000000   -0.000000 Ang=   0.00 deg.
 Keep R1 ints in memory in canonical form, NReq=2402904.
 Requested convergence on RMS density matrix=1.00D-08 within 128 cycles.
 Requested convergence on MAX density matrix=1.00D-06.
 Requested convergence on             energy=1.00D-06.
 No special actions if energy rises.
 SCF Done:  E(RM06) =  -76.4220497259     A.U. after    7 cycles
            NFock=  7  Conv=0.19D-08     -V/T= 2.0028
 DoSCS=F DFT=T ScalE2(SS,OS)=  1.000000  1.000000
 Range of M.O.s used for correlation:     1    43
 NBasis=    43 NAE=     5 NBE=     5 NFC=     0 NFV=     0
 NROrb=     43 NOA=     5 NOB=     5 NVA=    38 NVB=    38
   1 Symmetry operations used in ECPInt.
 ECPInt:  NShTT=     190 NPrTT=     556 LenC2=     191 LenP2D=     543.
 LDataN:  DoStor=T MaxTD1= 7 Len=  274
 Symmetrizing basis deriv contribution to polar:
 IMax=3 JMax=2 DiffMx= 0.00D+00
 G2DrvN: will do     4 centers at a time, making    1 passes.
 Calling FoFCou, ICntrl=  3107 FMM=F I1Cent=   0 AccDes= 0.00D+00.
 End of G2Drv F.D. properties file   721 does not exist.
 End of G2Drv F.D. properties file   722 does not exist.
 End of G2Drv F.D. properties file   788 does not exist.
          IDoAtm=111
          Differentiating once with respect to electric field.
                with respect to dipole field.
          Differentiating once with respect to nuclear coordinates.
 Keep R1 ints in memory in canonical form, NReq=2404811.
[...]
 Total X0       : cm-1 =    -0.68424 ; Kcal/mol =  -0.002 ; KJ/mol =  -0.008

 Anharmonic Zero Point Energy
 ----------------------------
 Harmonic       : cm-1 =  4714.99927 ; Kcal/mol =  13.481 ; KJ/mol =  56.404
 Anharmonic Pot.: cm-1 =   -66.04729 ; Kcal/mol =  -0.189 ; KJ/mol =  -0.790
 Watson+Coriolis: cm-1 =   -10.81132 ; Kcal/mol =  -0.031 ; KJ/mol =  -0.129
 Total Anharm   : cm-1 =  4638.14067 ; Kcal/mol =  13.261 ; KJ/mol =  55.484

     ==================================================
          Vibrational Energies at Anharmonic Level
     ==================================================

 Units: Vibrational energies and rotational constants in cm^-1.
 NOTE: Transition energies are given with respect to the ground state.

 Reference Data
 --------------
                              E(harm)  E(anharm)     Aa(x)      Ba(y)      Ca(z)
 Equilibrium Geometry                             27.753545  14.476479   9.463942
 Ground State                 4714.999  4638.141  28.280224  14.410380   9.245314

 Fundamental Bands
 -----------------
     Mode(n)      Status      E(harm)  E(anharm)     Aa(x)      Ba(y)      Ca(z)
        1(1)      active      3977.326  3790.692  27.129772  14.323284   9.108104
        2(1)      active      3853.914  3681.705  27.634058  14.198977   9.078076
        3(1)      active      1598.758  1543.894  31.130197  14.576679   9.112506

 Overtones
 ---------
     Mode(n)                  E(harm)  E(anharm)     Aa(x)      Ba(y)      Ca(z)
        1(2)                  7954.652  7485.375  25.979320  14.236188   8.970894
        2(2)                  7707.828  7279.659  26.987893  13.987574   8.910838
        3(2)                  3197.517  3049.524  33.980171  14.742978   8.979698

 Combination Bands
 -----------------
     Mode(n)     Mode(n)      E(harm)  E(anharm)     Aa(x)      Ba(y)      Ca(z)
        2(1)        1(1)      7831.240  7309.913  26.483607  14.111881   8.940866
        3(1)        1(1)      5576.084  5315.817  29.979745  14.489583   8.975296
        3(1)        2(1)      5452.673  5211.164  30.484032  14.365276   8.945268

     ==================================================
      Thermodynamic properties and Partition Functions
     ==================================================

 ZPE(harm) = 0.56404D+02 kJ/mol        ZPE(anh)= 0.55484D+02 kJ/mol

 Input values of T(K) and P(atm): 298.15   1.00
                    Harmonic value     SPT anharmonic value
 Qvib               0.13142D-09          0.19045D-09
 QZvib              0.10004D+01          0.10006D+01
 Energy             0.63849D+02          0.62932D+02         kJ/mol
 Enthalpy           0.66328D+02          0.65411D+02         kJ/mol
 Entropy            0.19431D+03          0.19432D+03         J/(mol K)
 Sp.Heat(V)         0.25164D+02          0.25212D+02         J/(mol K)
 Sp.Heat(P)         0.33479D+02          0.33526D+02         J/(mol K)

 T =  298.15 K;  P =   1.00 atm
                    Harmonic value     SPT anharmonic value
 Qvib               0.13142D-09          0.19045D-09
 QZvib              0.10004D+01          0.10006D+01
 Energy             0.63849D+02          0.62932D+02         kJ/mol
 Enthalpy           0.66328D+02          0.65411D+02         kJ/mol
 Entropy            0.19431D+03          0.19432D+03         J/(mol K)
 Sp.Heat(V)         0.25164D+02          0.25212D+02         J/(mol K)
 Sp.Heat(P)         0.33479D+02          0.33526D+02         J/(mol K)

 T =  500.00 K;  P =   1.00 atm
                    Harmonic value     SPT anharmonic value
 Qvib               0.12943D-05          0.16175D-05
 QZvib              0.10102D+01          0.10119D+01
 Energy             0.69071D+02          0.68178D+02         kJ/mol
 Enthalpy           0.73228D+02          0.72335D+02         kJ/mol
 Entropy            0.21195D+03          0.21202D+03         J/(mol K)
 Sp.Heat(V)         0.26775D+02          0.26962D+02         J/(mol K)
 Sp.Heat(P)         0.35089D+02          0.35276D+02         J/(mol K)

 T = 1000.00 K;  P =   1.00 atm
                    Harmonic value     SPT anharmonic value
 Qvib               0.12671D-02          0.14314D-02
 QZvib              0.11194D+01          0.11322D+01
 Energy             0.83815D+02          0.83091D+02         kJ/mol
 Enthalpy           0.92129D+02          0.91406D+02         kJ/mol
 Entropy            0.23793D+03          0.23822D+03         J/(mol K)
 Sp.Heat(V)         0.32293D+02          0.32789D+02         J/(mol K)
 Sp.Heat(P)         0.40608D+02          0.41104D+02         J/(mol K)

 T = 1500.00 K;  P =   1.00 atm
                    Harmonic value     SPT anharmonic value
 Qvib               0.14522D-01          0.16013D-01
 QZvib              0.13371D+01          0.13695D+01
 Energy             0.10133D+03          0.10089D+03         kJ/mol
 Enthalpy           0.11380D+03          0.11336D+03         kJ/mol
 Entropy            0.25543D+03          0.25596D+03         J/(mol K)
 Sp.Heat(V)         0.37556D+02          0.38168D+02         J/(mol K)
 Sp.Heat(P)         0.45870D+02          0.46482D+02         J/(mol K)

 T = 2000.00 K;  P =   1.00 atm
                    Harmonic value     SPT anharmonic value
 Qvib               0.55699D-01          0.61048D-01
 QZvib              0.16555D+01          0.17169D+01
 Energy             0.12111D+03          0.12097D+03         kJ/mol
 Enthalpy           0.13774D+03          0.13760D+03         kJ/mol
 Entropy            0.26918D+03          0.26987D+03         J/(mol K)
 Sp.Heat(V)         0.41324D+02          0.41863D+02         J/(mol K)
 Sp.Heat(P)         0.49639D+02          0.50178D+02         J/(mol K)

     ==================================================
               Anharmonic Transition Moments
     ==================================================

 Electric dipole : Fundamental Bands
 ------------------------------------------------------------------------
   Mode(n)                            X               Y               Z
      1(1)                       0.301115D-01    0.164482D-08   -0.121623D-12
      2(1)                       0.139689D-07   -0.970452D-02    0.969927D-14
      3(1)                       0.535855D-06   -0.572472D-01    0.479997D-05

 Electric dipole : Overtones
 ------------------------------------------------------------------------
   Mode(n)                            X               Y               Z
      1(2)                       0.280406D-09    0.332118D-03    0.141617D-15
      2(2)                      -0.197812D-08    0.247792D-02    0.137762D-16
      3(2)                      -0.182085D-08    0.573999D-02   -0.802479D-15

 Electric dipole : Combination Bands
 ------------------------------------------------------------------------
   Mode(n)     Mode(n)                X               Y               Z
      2(1)        1(1)          -0.536176D-02   -0.166419D-08    0.263441D-15
      3(1)        1(1)          -0.671888D-02   -0.928778D-09    0.642604D-15
      3(1)        2(1)          -0.214381D-08    0.104727D-02    0.150330D-15

     ==================================================
              Anharmonic Infrared Spectroscopy
     ==================================================

 Units: Transition energies (E) in cm^-1
        Integrated intensity (I) in km.mol^-1

 Fundamental Bands
 -----------------
   Mode(n)                  E(harm)   E(anharm)        I(harm)       I(anharm)
      1(1)                  3977.326   3790.692     59.33761977     55.65977597
      2(1)                  3853.914   3681.705      7.36987622      5.61506055
      3(1)                  1598.758   1543.894     81.75056085     81.93743580

 Overtones
 ---------
   Mode(n)                  E(harm)   E(anharm)                      I(anharm)
      1(2)                  7954.652   7485.375                      0.01337074
      2(2)                  7707.828   7279.659                      0.72384212
      3(2)                  3197.517   3049.524                      1.62708684

 Combination Bands
 -----------------
   Mode(n)     Mode(n)      E(harm)   E(anharm)                      I(anharm)
      2(1)        1(1)      7831.240   7309.913                      3.40317288
      3(1)        1(1)      5576.084   5315.817                      3.88616090
      3(1)        2(1)      5452.673   5211.164                      0.09255681

 Units: Transition energies (E) in cm^-1
        Dipole strengths (DS) in 10^-40 esu^2.cm^2

 Fundamental Bands
 -----------------
   Mode(n)                  E(harm)   E(anharm)       DS(harm)      DS(anharm)
      1(1)                  3977.326   3790.692     59.51772746     58.57743956
      2(1)                  3853.914   3681.705      7.62896377      6.08433162
      3(1)                  1598.758   1543.894    203.99302395    211.72511391

 Overtones
 ---------
   Mode(n)                  E(harm)   E(anharm)                     DS(anharm)
      1(2)                  7954.652   7485.375                      0.00712606
      2(2)                  7707.828   7279.659                      0.39667990
      3(2)                  3197.517   3049.524                      2.12856065

 Combination Bands
 -----------------
   Mode(n)     Mode(n)      E(harm)   E(anharm)                     DS(anharm)
      2(1)        1(1)      7831.240   7309.913                      1.85728778
      3(1)        1(1)      5576.084   5315.817                      2.91647436
      3(1)        2(1)      5452.673   5211.164                      0.07085672


 GradGradGradGradGradGradGradGradGradGradGradGradGradGradGradGradGradGrad
 Berny optimization.
 Internal  Forces:  Max     0.000008634 RMS     0.000006034
 Search for a local minimum.
 Step number   1 out of a maximum of    2
 All quantities printed in internal units (Hartrees-Bohrs-Radians)
 Second derivative matrix not updated -- analytic derivatives used.
 The second derivative matrix:
                          R1        R2        A1
           R1           0.55096
           R2          -0.00791   0.55096
           A1           0.03029   0.03029   0.15151
 ITU=  0
     Eigenvalues ---    0.14688   0.54768   0.55887
 Angle between quadratic step and forces=  27.58 degrees.
 Linear search not attempted -- first point.
 Iteration  1 RMS(Cart)=  0.00003275 RMS(Int)=  0.00000000
 Iteration  2 RMS(Cart)=  0.00000000 RMS(Int)=  0.00000000
 ClnCor:  largest displacement from symmetrization is 1.90D-15 for atom     3.
 Variable       Old X    -DE/DX   Delta X   Delta X   Delta X     New X
                                 (Linear)    (Quad)   (Total)
    R1        1.81125  -0.00000   0.00000  -0.00000  -0.00000   1.81124
    R2        1.81125  -0.00000   0.00000  -0.00000  -0.00000   1.81124
    A1        1.83547  -0.00001   0.00000  -0.00006  -0.00006   1.83542
         Item               Value     Threshold  Converged?
 Maximum Force            0.000009     0.000450     YES
 RMS     Force            0.000006     0.000300     YES
 Maximum Displacement     0.000035     0.001800     YES
 RMS     Displacement     0.000033     0.001200     YES
 Predicted change in Energy=-2.572082D-10
 Optimization completed.
    -- Stationary point found.
                           ----------------------------
                           !   Optimized Parameters   !
                           ! (Angstroms and Degrees)  !
 --------------------------                            --------------------------
 ! Name  Definition              Value          Derivative Info.                !
 --------------------------------------------------------------------------------
 ! R1    R(1,2)                  0.9585         -DE/DX =    0.0                 !
 ! R2    R(1,3)                  0.9585         -DE/DX =    0.0                 !
 ! A1    A(2,1,3)              105.1648         -DE/DX =    0.0                 !
 --------------------------------------------------------------------------------
 GradGradGradGradGradGradGradGradGradGradGradGradGradGradGradGradGradGrad


 ----------------------------------------------------------------------

 Electric dipole moment (input orientation):
 (Debye = 10**-18 statcoulomb cm , SI units = C m)
                  (au)            (Debye)         (10**-30 SI)
   Tot        0.815564D+00      0.207296D+01      0.691464D+01
   x          0.470866D+00      0.119682D+01      0.399217D+01
   y          0.653822D+00      0.166185D+01      0.554334D+01
   z          0.126280D+00      0.320972D+00      0.107065D+01

 Dipole polarizability, Alpha (input orientation).
 (esu units = cm**3 , SI units = C**2 m**2 J**-1)
 Alpha(0;0):
               (au)            (10**-24 esu)      (10**-40 SI)
   iso        0.660992D+01      0.979489D+00      0.108983D+01
   aniso      0.248723D+01      0.368569D+00      0.410088D+00
   xx         0.756616D+01      0.112119D+01      0.124749D+01
   yx        -0.719095D+00     -0.106559D+00     -0.118563D+00
   yy         0.698237D+01      0.103468D+01      0.115124D+01
   zx        -0.138873D+00     -0.205788D-01     -0.228970D-01
   zy         0.341278D+00      0.505722D-01      0.562692D-01
   zz         0.528124D+01      0.782599D+00      0.870759D+00

 ----------------------------------------------------------------------

 Dipole orientation:
     8         -1.19071213          1.15266803          1.49995234
     1          0.06258985          0.44652607          2.60050159
     1         -2.44401411          1.85880999          2.60050157

 Electric dipole moment (dipole orientation):
 (Debye = 10**-18 statcoulomb cm , SI units = C m)
                  (au)            (Debye)         (10**-30 SI)
   Tot        0.815564D+00      0.207296D+01      0.691464D+01
   x          0.000000D+00      0.000000D+00      0.000000D+00
   y          0.000000D+00      0.000000D+00      0.000000D+00
   z          0.815564D+00      0.207296D+01      0.691464D+01

 Dipole polarizability, Alpha (dipole orientation).
 (esu units = cm**3 , SI units = C**2 m**2 J**-1)
 Alpha(0;0):
               (au)            (10**-24 esu)      (10**-40 SI)
   iso        0.660992D+01      0.979489D+00      0.108983D+01
   aniso      0.248723D+01      0.368569D+00      0.410088D+00
   xx         0.739279D+01      0.109550D+01      0.121891D+01
   yx        -0.122684D+01     -0.181799D+00     -0.202278D+00
   yy         0.590656D+01      0.875262D+00      0.973860D+00
   zx         0.000000D+00      0.000000D+00      0.000000D+00
   zy         0.000000D+00      0.000000D+00      0.000000D+00
   zz         0.653041D+01      0.967707D+00      0.107672D+01

 ----------------------------------------------------------------------
 Unable to Open any file for archive entry.
 1\1\GINC-GADI-CPU-CLX-1826\Freq\RM06\def2TZVP\H2O1\PK8622\18-Jun-2020\
 0\\#N Geom=AllCheck Guess=TCheck SCRF=Check GenChk RM06/def2TZVP Freq\
 \Anharmonic frequencies for H2O using VPT2\\0,1\O,-0.2344300506,1.1593
 71638,-0.0023102202\H,0.7233631089,1.1947297799,0.0045235704\H,-0.5197
 430583,2.0577885821,0.1712066499\\Version=ES64L-G16RevC.01\State=1-A'\
 HF=-76.4220671\RMSD=1.544e-10\RMSF=3.099e-06\ZeroPoint=0.0214831\Therm
 al=0.0243189\ETot=-76.3977481\HTot=-76.3968039\GTot=-76.41887\Dipole=0
 .4708656,0.6538224,0.1262802\DipoleDeriv=-0.4751653,0.0638804,0.012339
 1,0.0638804,-0.4403809,0.0580987,0.0123391,0.0580987,-0.7299728,0.1654
 98,-0.0494854,-0.0095585,-0.0644418,0.289683,-0.0156279,-0.0124472,-0.
 0156278,0.3675786,0.3096673,-0.014395,-0.0027805,0.0005614,0.150698,-0
 .0424708,0.0001081,-0.0424709,0.3623942\Polar=7.5661553,-0.7190955,6.9
 823668,-0.1388728,0.3412784,5.2812415\Quadrupole=0.8019336,0.259655,-1
 .0615886,-0.6818954,-0.1316902,0.2650661\PG=CS [SG(H2O1)]\NImag=0\\0.6
 2097999,-0.11665355,0.51763569,-0.02252710,0.10010218,0.01867206,-0.53
 606338,0.00998160,0.00192514,0.55152241,-0.04993872,-0.04135610,-0.008
 05154,0.00225517,0.04395532,-0.00964774,-0.00805124,-0.00122438,0.0004
 3832,0.00854757,0.00134993,-0.08491661,0.10667196,0.02060196,-0.015459
 02,0.04768355,0.00920942,0.10037563,0.16659227,-0.47627959,-0.09205064
 ,-0.01223677,-0.00259922,-0.00049633,-0.15435550,0.47887881,0.03217484
 ,-0.09205094,-0.01744768,-0.00236346,-0.00049603,-0.00012556,-0.029811
 38,0.09254696,0.01757324\\0.00000145,0.00000202,0.00000039,0.00000434,
 -0.00000452,-0.00000087,-0.00000579,0.00000251,0.00000048\\-0.24185563
 ,0.35815684,0.01892114,0.06917195,-0.01470761,0.09224101,0.12256448,-0
 .17874092,-0.03452078,-0.07955440,-0.17827960,-0.01103838,0.00704907,0
 .15110379,0.03210856,-0.03443168,0.00704907,-0.04617936,0.02918341,0.0
 0435438,0.01040816,0.11929115,-0.17941592,-0.03465117,-0.04301008,0.02
 717581,0.00524827,-0.07628106,-0.17987724,-0.00788276,0.00765853,0.027
 63713,-0.02107018,-0.01140345,0.15224011,0.02895294,-0.03474026,0.0076
 5854,-0.04606165,0.00533737,-0.01140345,0.03577120,0.02940289,0.003744
 92,0.01029045,-1.35729127,0.40034975,-1.01625571,0.07731390,-0.2729283
 5,0.34416965,1.38958020,0.01895711,0.00366929,-1.41451047,0.07427915,-
 0.17724097,0.00409492,-0.02318664,0.16997933,0.01435406,0.00409464,-0.
 19765020,-0.00448636,-0.00820500,0.21087664,-0.03228893,-0.41930686,-0
 .08098319,0.02493027,-0.05109251,-0.00986770,0.00735866,-0.47462889,1.
 19349668,0.26883344,0.00422952,0.00726164,0.00411036,0.47039937,-1.200
 75832,-0.09166796,0.26883371,-0.14651945,0.00081708,0.00411008,-0.0132
 2644,0.09085089,-0.27294379,0.15974588,-1.51388823,-0.52553007,1.45944
 949,-0.10150732,0.28187231,0.05443953,1.44770094,0.07701675,0.01488323
 ,-1.43421848,0.07701673,-0.20091331,0.00494383,-0.07233646,0.18791570,
 0.01488323,0.00494383,-0.22555381,-0.01397922,-0.00745413,0.22506897,0
 .06618730,0.44851333,0.08662409,-0.01348246,-0.00468026,-0.00090400,-0
 .05270484,0.44851335,-1.25853618,-0.28681613,-0.00468029,0.01299761,0.
 00251031,-0.44383306,1.24553856,0.08662409,-0.28681613,0.17111427,-0.0
 0090401,0.00251031,0.00048484,-0.08572008,0.28430583,-0.17159911,-0.64
 100133,-0.08803973,-0.67497760,-0.01700758,-0.15237010,0.08451056,0.71
 571787,0.11384762,0.02199215,-0.68779508,0.24858285,-0.04351639,0.0025
 9956,-0.16133444,0.08408876,0.04801462,0.00259889,-0.05646739,-0.03116
 349,0.00603812,0.05398732,-0.07471655,-0.02580789,-0.00498457,-0.02792
 279,-0.08724841,-0.01685113,0.10263934,-0.16054312,0.71849398,0.149770
 53,0.04748682,-0.04057237,-0.00863701,0.11305630,-0.67792161,-0.031007
 04,0.14977121,-0.02804318,0.00917134,-0.00863769,0.00248006,0.02183570
 ,-0.14113352,0.02556312,2.76823591,-0.89458392,1.99728795,-0.17275713,
 0.65593449,-1.27224929,-3.12906391,-0.12588008,-0.02433138,3.14093806,
 -0.19101235,0.68355165,-0.00307493,0.11875254,-0.70100946,-0.03691088,
 -0.00307460,0.69887359,0.02295503,0.00693537,-0.73557570,0.36082800,1.
 02046400,0.19708851,-0.01187414,0.07225980,0.01395585,-0.34895386,1.08
 559627,-2.68083960,-0.65285957,0.00712754,0.01745781,-0.00386077,-1.09
 272380,2.66338179,0.20966801,-0.65285989,0.57337570,0.00137635,-0.0038
 6044,0.03670211,-0.21104436,0.65672033,-0.61007781,2.75515464,-0.74318
 048,2.08420731,-0.14351469,0.70278741,-1.41886478,-3.23584726,-0.27390
 530,-0.05292157,3.22846406,-0.27307161,0.74934428,-0.00540045,0.268392
 37,-0.75986903,-0.05276055,-0.00540045,0.77625553,0.05185676,0.0026639
 0,-0.77314004,0.48069262,1.01708578,0.19643626,0.00738320,0.00467925,0
 .00090380,-0.48807581,1.01625210,-2.83355159,-0.69738696,0.00551293,0.
 01052475,0.00273655,-1.02176503,2.82302684,0.19627524,-0.69738696,0.64
 260926,0.00106481,0.00273655,-0.00311549,-0.19734005,0.69465041,-0.639
 49376\\@
 The archive entry for this job was punched.


 TRUTH, IN SCIENCE, CAN BE DEFINED AS THE WORKING HYPOTHESIS 
 BEST FITTED TO OPEN THE WAY TO THE NEXT BETTER ONE.

                              -- KONRAD LORENZ
 Job cpu time:       0 days  0 hours  2 minutes 29.9 seconds.
 Elapsed time:       0 days  0 hours  2 minutes 33.6 seconds.
 File lengths (MBytes):  RWF=     44 Int=      0 D2E=      0 Chk=     38 Scr=      1
 Normal termination of Gaussian 16 at Thu Jun 18 14:16:04 2020.
